 Entering Gaussian System, Link 0=g16
 Initial command:
 /software/commercial/MERCURY/GAUSSIAN/SSE4/g16/l1.exe "/home/thomasegg/AlcoholMixtureSpec/Gau-1082572.inp" -scrdir="/home/thomasegg/AlcoholMixtureSpec/"
 Entering Link 1 = /software/commercial/MERCURY/GAUSSIAN/SSE4/g16/l1.exe PID=   1082573.
  
 Copyright (c) 1988-2019, Gaussian, Inc.  All Rights Reserved.
  
 This is part of the Gaussian(R) 16 program.  It is based on
 the Gaussian(R) 09 system (copyright 2009, Gaussian, Inc.),
 the Gaussian(R) 03 system (copyright 2003, Gaussian, Inc.),
 the Gaussian(R) 98 system (copyright 1998, Gaussian, Inc.),
 the Gaussian(R) 94 system (copyright 1995, Gaussian, Inc.),
 the Gaussian 92(TM) system (copyright 1992, Gaussian, Inc.),
 the Gaussian 90(TM) system (copyright 1990, Gaussian, Inc.),
 the Gaussian 88(TM) system (copyright 1988, Gaussian, Inc.),
 the Gaussian 86(TM) system (copyright 1986, Carnegie Mellon
 University), and the Gaussian 82(TM) system (copyright 1983,
 Carnegie Mellon University). Gaussian is a federally registered
 trademark of Gaussian, Inc.
  
 This software contains proprietary and confidential information,
 including trade secrets, belonging to Gaussian, Inc.
  
 This software is provided under written license and may be
 used, copied, transmitted, or stored only in accord with that
 written license.
  
 The following legend is applicable only to US Government
 contracts under FAR:
  
                    RESTRICTED RIGHTS LEGEND
  
 Use, reproduction and disclosure by the US Government is
 subject to restrictions as set forth in subparagraphs (a)
 and (c) of the Commercial Computer Software - Restricted
 Rights clause in FAR 52.227-19.
  
 Gaussian, Inc.
 340 Quinnipiac St., Bldg. 40, Wallingford CT 06492
  
  
 ---------------------------------------------------------------
 Warning -- This program may not be used in any manner that
 competes with the business of Gaussian, Inc. or will provide
 assistance to any competitor of Gaussian, Inc.  The licensee
 of this program is prohibited from giving any competitor of
 Gaussian, Inc. access to this program.  By using this program,
 the user acknowledges that Gaussian, Inc. is engaged in the
 business of creating and licensing software in the field of
 computational chemistry and represents and warrants to the
 licensee that it is not a competitor of Gaussian, Inc. and that
 it will not use this program in any manner prohibited above.
 ---------------------------------------------------------------
  

 Cite this work as:
 Gaussian 16, Revision C.01,
 M. J. Frisch, G. W. Trucks, H. B. Schlegel, G. E. Scuseria, 
 M. A. Robb, J. R. Cheeseman, G. Scalmani, V. Barone, 
 G. A. Petersson, H. Nakatsuji, X. Li, M. Caricato, A. V. Marenich, 
 J. Bloino, B. G. Janesko, R. Gomperts, B. Mennucci, H. P. Hratchian, 
 J. V. Ortiz, A. F. Izmaylov, J. L. Sonnenberg, D. Williams-Young, 
 F. Ding, F. Lipparini, F. Egidi, J. Goings, B. Peng, A. Petrone, 
 T. Henderson, D. Ranasinghe, V. G. Zakrzewski, J. Gao, N. Rega, 
 G. Zheng, W. Liang, M. Hada, M. Ehara, K. Toyota, R. Fukuda, 
 J. Hasegawa, M. Ishida, T. Nakajima, Y. Honda, O. Kitao, H. Nakai, 
 T. Vreven, K. Throssell, J. A. Montgomery, Jr., J. E. Peralta, 
 F. Ogliaro, M. J. Bearpark, J. J. Heyd, E. N. Brothers, K. N. Kudin, 
 V. N. Staroverov, T. A. Keith, R. Kobayashi, J. Normand, 
 K. Raghavachari, A. P. Rendell, J. C. Burant, S. S. Iyengar, 
 J. Tomasi, M. Cossi, J. M. Millam, M. Klene, C. Adamo, R. Cammi, 
 J. W. Ochterski, R. L. Martin, K. Morokuma, O. Farkas, 
 J. B. Foresman, and D. J. Fox, Gaussian, Inc., Wallingford CT, 2019.
 
 ******************************************
 Gaussian 16:  ES64L-G16RevC.01  3-Jul-2019
                15-May-2022 
 ******************************************
 %Mem=1gb
 -----------------------------
 #p B3LYP/aug-cc-pVTZ OPT FREQ
 -----------------------------
 1/18=20,19=15,26=3,38=1/1,3;
 2/9=110,12=2,17=6,18=5,40=1/2;
 3/5=16,6=1,7=10,11=2,25=1,30=1,71=1,74=-5/1,2,3;
 4//1;
 5/5=2,38=5/2;
 6/7=2,8=2,9=2,10=2,28=1/1;
 7//1,2,3,16;
 1/18=20,19=15,26=3/3(2);
 2/9=110/2;
 99//99;
 2/9=110/2;
 3/5=16,6=1,7=10,11=2,25=1,30=1,71=1,74=-5/1,2,3;
 4/5=5,16=3,69=1/1;
 5/5=2,38=5/2;
 7//1,2,3,16;
 1/18=20,19=15,26=3/3(-5);
 2/9=110/2;
 6/7=2,8=2,9=2,10=2,19=2,28=1/1;
 99/9=1/99;
 Leave Link    1 at Sun May 15 14:07:32 2022, MaxMem=   134217728 cpu:               0.0 elap:               0.0
 (Enter /software/commercial/MERCURY/GAUSSIAN/SSE4/g16/l101.exe)
 -------
 Ethanol
 -------
 Symbolic Z-matrix:
 Charge =  0 Multiplicity = 1
 C                    -0.01388   0.01355   0.02348 
 C                     1.52764   0.00175   0.00303 
 H                     1.91165   1.01712  -0.00046 
 H                     1.91165  -0.50901   0.88059 
 H                     1.88678  -0.51054  -0.88435 
 O                    -0.44658   0.69789   1.20887 
 H                    -1.43561   0.66692   1.15522 
 H                    -0.38732   0.51205  -0.88006 
 H                    -0.38732  -1.01818   0.00336 
 
 ITRead=  0  0  0  0  0  0  0  0  0
 MicOpt= -1 -1 -1 -1 -1 -1 -1 -1 -1
 NAtoms=      9 NQM=        9 NQMF=       0 NMMI=      0 NMMIF=      0
                NMic=       0 NMicF=      0.
                    Isotopes and Nuclear Properties:
 (Nuclear quadrupole moments (NQMom) in fm**2, nuclear magnetic moments (NMagM)
  in nuclear magnetons)

  Atom         1           2           3           4           5           6           7           8           9
 IAtWgt=          12          12           1           1           1          16           1           1           1
 AtmWgt=  12.0000000  12.0000000   1.0078250   1.0078250   1.0078250  15.9949146   1.0078250   1.0078250   1.0078250
 NucSpn=           0           0           1           1           1           0           1           1           1
 AtZEff=  -0.0000000  -0.0000000  -0.0000000  -0.0000000  -0.0000000  -0.0000000  -0.0000000  -0.0000000  -0.0000000
 NQMom=    0.0000000   0.0000000   0.0000000   0.0000000   0.0000000   0.0000000   0.0000000   0.0000000   0.0000000
 NMagM=    0.0000000   0.0000000   2.7928460   2.7928460   2.7928460   0.0000000   2.7928460   2.7928460   2.7928460
 AtZNuc=   6.0000000   6.0000000   1.0000000   1.0000000   1.0000000   8.0000000   1.0000000   1.0000000   1.0000000
 Leave Link  101 at Sun May 15 14:07:32 2022, MaxMem=   134217728 cpu:               0.1 elap:               0.1
 (Enter /software/commercial/MERCURY/GAUSSIAN/SSE4/g16/l103.exe)

 GradGradGradGradGradGradGradGradGradGradGradGradGradGradGradGradGradGrad
 Berny optimization.
 Initialization pass.
                           ----------------------------
                           !    Initial Parameters    !
                           ! (Angstroms and Degrees)  !
 --------------------------                            --------------------------
 ! Name  Definition              Value          Derivative Info.                !
 --------------------------------------------------------------------------------
 ! R1    R(1,2)                  1.5417         estimate D2E/DX2                !
 ! R2    R(1,6)                  1.4355         estimate D2E/DX2                !
 ! R3    R(1,8)                  1.0974         estimate D2E/DX2                !
 ! R4    R(1,9)                  1.0974         estimate D2E/DX2                !
 ! R5    R(2,3)                  1.0856         estimate D2E/DX2                !
 ! R6    R(2,4)                  1.0856         estimate D2E/DX2                !
 ! R7    R(2,5)                  1.0858         estimate D2E/DX2                !
 ! R8    R(6,7)                  0.991          estimate D2E/DX2                !
 ! A1    A(2,1,6)              108.421          estimate D2E/DX2                !
 ! A2    A(2,1,8)              109.4391         estimate D2E/DX2                !
 ! A3    A(2,1,9)              109.4391         estimate D2E/DX2                !
 ! A4    A(6,1,8)              111.1463         estimate D2E/DX2                !
 ! A5    A(6,1,9)              111.1463         estimate D2E/DX2                !
 ! A6    A(8,1,9)              107.2275         estimate D2E/DX2                !
 ! A7    A(1,2,3)              110.2784         estimate D2E/DX2                !
 ! A8    A(1,2,4)              110.2784         estimate D2E/DX2                !
 ! A9    A(1,2,5)              110.194          estimate D2E/DX2                !
 ! A10   A(3,2,4)              108.5138         estimate D2E/DX2                !
 ! A11   A(3,2,5)              108.7647         estimate D2E/DX2                !
 ! A12   A(4,2,5)              108.7647         estimate D2E/DX2                !
 ! A13   A(1,6,7)              103.9598         estimate D2E/DX2                !
 ! D1    D(6,1,2,3)            -59.914          estimate D2E/DX2                !
 ! D2    D(6,1,2,4)             59.9141         estimate D2E/DX2                !
 ! D3    D(6,1,2,5)           -180.0            estimate D2E/DX2                !
 ! D4    D(8,1,2,3)             61.4695         estimate D2E/DX2                !
 ! D5    D(8,1,2,4)           -178.7024         estimate D2E/DX2                !
 ! D6    D(8,1,2,5)            -58.6165         estimate D2E/DX2                !
 ! D7    D(9,1,2,3)            178.7025         estimate D2E/DX2                !
 ! D8    D(9,1,2,4)            -61.4694         estimate D2E/DX2                !
 ! D9    D(9,1,2,5)             58.6165         estimate D2E/DX2                !
 ! D10   D(2,1,6,7)           -180.0            estimate D2E/DX2                !
 ! D11   D(8,1,6,7)             59.6732         estimate D2E/DX2                !
 ! D12   D(9,1,6,7)            -59.6732         estimate D2E/DX2                !
 --------------------------------------------------------------------------------
 Trust Radius=3.00D-01 FncErr=1.00D-07 GrdErr=1.00D-06 EigMax=2.50D+02 EigMin=1.00D-04
 Number of steps in this run=     43 maximum allowed number of steps=    100.
 GradGradGradGradGradGradGradGradGradGradGradGradGradGradGradGradGradGrad

 Leave Link  103 at Sun May 15 14:07:32 2022, MaxMem=   134217728 cpu:               0.0 elap:               0.0
 (Enter /software/commercial/MERCURY/GAUSSIAN/SSE4/g16/l202.exe)
                          Input orientation:                          
 ---------------------------------------------------------------------
 Center     Atomic      Atomic             Coordinates (Angstroms)
 Number     Number       Type             X           Y           Z
 ---------------------------------------------------------------------
      1          6           0       -0.013879    0.013554    0.023478
      2          6           0        1.527635    0.001747    0.003026
      3          1           0        1.911650    1.017122   -0.000456
      4          1           0        1.911650   -0.509014    0.880592
      5          1           0        1.886784   -0.510541   -0.884350
      6          8           0       -0.446580    0.697887    1.208866
      7          1           0       -1.435611    0.666919    1.155224
      8          1           0       -0.387318    0.512054   -0.880056
      9          1           0       -0.387318   -1.018178    0.003358
 ---------------------------------------------------------------------
                    Distance matrix (angstroms):
                    1          2          3          4          5
     1  C    0.000000
     2  C    1.541695   0.000000
     3  H    2.171493   1.085572   0.000000
     4  H    2.171493   1.085572   1.762197   0.000000
     5  H    2.170564   1.085755   1.765118   1.765118   0.000000
     6  O    1.435509   2.415820   2.669386   2.669386   3.359530
     7  H    1.931077   3.248206   3.558426   3.558426   4.072417
     8  H    1.097421   2.169629   2.512776   3.070458   2.493443
     9  H    1.097421   2.169629   3.070458   2.512776   2.493444
                    6          7          8          9
     6  O    0.000000
     7  H    0.990969   0.000000
     8  H    2.098009   2.294617   0.000000
     9  H    2.098009   2.294617   1.766927   0.000000
 Stoichiometry    C2H6O
 Framework group  CS[SG(C2H2O),X(H4)]
 Deg. of freedom    13
 Full point group                 CS      NOp   2
 Largest Abelian subgroup         CS      NOp   2
 Largest concise Abelian subgroup CS      NOp   2
                         Standard orientation:                         
 ---------------------------------------------------------------------
 Center     Atomic      Atomic             Coordinates (Angstroms)
 Number     Number       Type             X           Y           Z
 ---------------------------------------------------------------------
      1          6           0       -0.000000    0.554674    0.000000
      2          6           0       -1.187105   -0.428994   -0.000000
      3          1           0       -1.151110   -1.062111   -0.881098
      4          1           0       -1.151110   -1.062111    0.881098
      5          1           0       -2.125878    0.116506   -0.000000
      6          8           0        1.218271   -0.204603    0.000000
      7          1           0        1.929823    0.485115    0.000000
      8          1           0       -0.062630    1.202673   -0.883463
      9          1           0       -0.062630    1.202673    0.883463
 ---------------------------------------------------------------------
 Rotational constants (GHZ):          34.9416376           9.1394416           7.9607416
 Leave Link  202 at Sun May 15 14:07:32 2022, MaxMem=   134217728 cpu:               0.0 elap:               0.0
 (Enter /software/commercial/MERCURY/GAUSSIAN/SSE4/g16/l301.exe)
 Standard basis: Aug-CC-pVTZ (5D, 7F)
 Ernie: Thresh=  0.10000D-02 Tol=  0.10000D-05 Strict=F.
 Ernie:  9 primitive shells out of 156 were deleted.
 There are   197 symmetry adapted cartesian basis functions of A'  symmetry.
 There are   118 symmetry adapted cartesian basis functions of A"  symmetry.
 There are   168 symmetry adapted basis functions of A'  symmetry.
 There are   108 symmetry adapted basis functions of A"  symmetry.
   276 basis functions,   378 primitive gaussians,   315 cartesian basis functions
    13 alpha electrons       13 beta electrons
       nuclear repulsion energy        81.0792180681 Hartrees.
 IExCor=  402 DFT=T Ex+Corr=B3LYP ExCW=0 ScaHFX=  0.200000
 ScaDFX=  0.800000  0.720000  1.000000  0.810000 ScalE2=  1.000000  1.000000
 IRadAn=      5 IRanWt=     -1 IRanGd=            0 ICorTp=0 IEmpDi=  4
 NAtoms=    9 NActive=    9 NUniq=    7 SFac= 1.65D+00 NAtFMM=   60 NAOKFM=F Big=F
 Integral buffers will be    131072 words long.
 Raffenetti 2 integral format.
 Two-electron integral symmetry is turned on.
 Leave Link  301 at Sun May 15 14:07:32 2022, MaxMem=   134217728 cpu:               0.1 elap:               0.1
 (Enter /software/commercial/MERCURY/GAUSSIAN/SSE4/g16/l302.exe)
 NPDir=0 NMtPBC=     1 NCelOv=     1 NCel=       1 NClECP=     1 NCelD=      1
         NCelK=      1 NCelE2=     1 NClLst=     1 CellRange=     0.0.
 One-electron integrals computed using PRISM.
 One-electron integral symmetry used in STVInt
 NBasis=   276 RedAO= T EigKep=  2.10D-05  NBF=   168   108
 NBsUse=   276 1.00D-06 EigRej= -1.00D+00 NBFU=   168   108
 Precomputing XC quadrature grid using
 IXCGrd= 4 IRadAn=           5 IRanWt=          -1 IRanGd=           0 AccXCQ= 0.00D+00.
 Generated NRdTot=       0 NPtTot=           0 NUsed=           0 NTot=          32
 NSgBfM=   315   315   315   315   315 MxSgAt=     9 MxSgA2=     9.
 Leave Link  302 at Sun May 15 14:07:33 2022, MaxMem=   134217728 cpu:               0.3 elap:               0.3
 (Enter /software/commercial/MERCURY/GAUSSIAN/SSE4/g16/l303.exe)
 DipDrv:  MaxL=1.
 Leave Link  303 at Sun May 15 14:07:33 2022, MaxMem=   134217728 cpu:               0.1 elap:               0.1
 (Enter /software/commercial/MERCURY/GAUSSIAN/SSE4/g16/l401.exe)
 ExpMin= 2.53D-02 ExpMax= 1.53D+04 ExpMxC= 5.22D+02 IAcc=3 IRadAn=         5 AccDes= 0.00D+00
 Harris functional with IExCor=  402 and IRadAn=       5 diagonalized for initial guess.
 HarFok:  IExCor=  402 AccDes= 0.00D+00 IRadAn=         5 IDoV= 1 UseB2=F ITyADJ=14
 ICtDFT=  3500011 ScaDFX=  1.000000  1.000000  1.000000  1.000000
 FoFCou: FMM=F IPFlag=           0 FMFlag=      100000 FMFlg1=           0
         NFxFlg=           0 DoJE=T BraDBF=F KetDBF=T FulRan=T
         wScrn=  0.000000 ICntrl=       500 IOpCl=  0 I1Cent=   200000004 NGrid=           0
         NMat0=    1 NMatS0=      1 NMatT0=    0 NMatD0=    1 NMtDS0=    0 NMtDT0=    0
 Petite list used in FoFCou.
 Harris En= -155.154553489868    
 JPrj=0 DoOrth=F DoCkMO=F.
 Initial guess orbital symmetries:
       Occupied  (A') (A') (A') (A') (A') (A') (A') (A") (A') (A')
                 (A") (A') (A")
       Virtual   (A') (A') (A') (A") (A') (A') (A") (A') (A') (A')
                 (A") (A") (A') (A') (A') (A") (A') (A') (A") (A')
                 (A') (A") (A') (A") (A') (A') (A') (A") (A') (A')
                 (A") (A') (A") (A') (A') (A") (A") (A') (A") (A")
                 (A') (A') (A') (A') (A') (A") (A') (A") (A') (A')
                 (A") (A") (A') (A') (A') (A') (A") (A') (A") (A')
                 (A') (A") (A') (A") (A') (A") (A') (A') (A") (A")
                 (A') (A") (A') (A") (A') (A') (A") (A') (A') (A')
                 (A") (A') (A") (A") (A') (A') (A") (A') (A') (A")
                 (A') (A") (A") (A') (A') (A') (A") (A') (A") (A')
                 (A") (A') (A") (A') (A") (A') (A') (A") (A') (A')
                 (A") (A') (A") (A') (A") (A') (A') (A") (A') (A")
                 (A') (A") (A') (A') (A") (A') (A') (A') (A") (A")
                 (A') (A") (A') (A") (A') (A") (A') (A') (A") (A')
                 (A") (A') (A') (A") (A') (A') (A") (A') (A") (A")
                 (A') (A') (A') (A') (A") (A') (A") (A') (A') (A")
                 (A') (A') (A') (A') (A") (A') (A") (A') (A") (A')
                 (A") (A') (A") (A') (A") (A") (A') (A') (A") (A')
                 (A") (A') (A") (A') (A") (A') (A') (A") (A") (A')
                 (A') (A") (A") (A") (A') (A') (A") (A') (A") (A')
                 (A') (A') (A") (A') (A") (A") (A') (A') (A') (A")
                 (A') (A') (A') (A") (A') (A') (A") (A') (A") (A')
                 (A") (A') (A") (A') (A') (A") (A') (A") (A") (A')
                 (A') (A") (A') (A") (A') (A") (A') (A') (A") (A')
                 (A') (A') (A") (A') (A') (A") (A') (A") (A') (A")
                 (A") (A') (A") (A") (A') (A') (A") (A') (A') (A')
                 (A') (A') (A')
 The electronic state of the initial guess is 1-A'.
 Leave Link  401 at Sun May 15 14:07:37 2022, MaxMem=   134217728 cpu:               4.3 elap:               4.3
 (Enter /software/commercial/MERCURY/GAUSSIAN/SSE4/g16/l502.exe)
 Integral symmetry usage will be decided dynamically.
 Closed shell SCF:
 Using DIIS extrapolation, IDIIS=  1040.
 NGot=   134217728 LenX=   134013783 LenY=   133914117
 Requested convergence on RMS density matrix=1.00D-08 within 128 cycles.
 Requested convergence on MAX density matrix=1.00D-06.
 Requested convergence on             energy=1.00D-06.
 No special actions if energy rises.
 Fock matrices will be formed incrementally for  20 cycles.

 Cycle   1  Pass 1  IDiag  1:
 FoFJK:  IHMeth= 1 ICntrl=       0 DoSepK=F KAlg= 0 I1Cent=           0 FoldK=F
 IRaf= 990000000 NMat=       1 IRICut=       1 DoRegI=T DoRafI=F ISym2E= 1 IDoP0=0 IntGTp=1.
 FoFCou: FMM=F IPFlag=           0 FMFlag=      100000 FMFlg1=           0
         NFxFlg=           0 DoJE=F BraDBF=F KetDBF=F FulRan=T
         wScrn=  0.000000 ICntrl=         0 IOpCl=  0 I1Cent=           0 NGrid=           0
         NMat0=    1 NMatS0=      1 NMatT0=    0 NMatD0=    1 NMtDS0=    0 NMtDT0=    0
 Petite list used in FoFCou.
 E= -154.968687347501    
 DIIS: error= 2.45D-02 at cycle   1 NSaved=   1.
 NSaved= 1 IEnMin= 1 EnMin= -154.968687347501     IErMin= 1 ErrMin= 2.45D-02
 ErrMax= 2.45D-02  0.00D+00 EMaxC= 1.00D-01 BMatC= 1.62D-01 BMatP= 1.62D-01
 IDIUse=3 WtCom= 7.55D-01 WtEn= 2.45D-01
 Coeff-Com:  0.100D+01
 Coeff-En:   0.100D+01
 Coeff:      0.100D+01
 Gap=     0.165 Goal=   None    Shift=    0.000
 GapD=    0.165 DampG=1.000 DampE=0.500 DampFc=0.5000 IDamp=-1.
 Damping current iteration by 5.00D-01
 RMSDP=1.86D-03 MaxDP=5.89D-02              OVMax= 1.91D-01

 Cycle   2  Pass 1  IDiag  1:
 RMSU=  9.07D-04    CP:  9.73D-01
 E= -155.015091533157     Delta-E=       -0.046404185656 Rises=F Damp=T
 DIIS: error= 5.74D-03 at cycle   2 NSaved=   2.
 NSaved= 2 IEnMin= 2 EnMin= -155.015091533157     IErMin= 2 ErrMin= 5.74D-03
 ErrMax= 5.74D-03  0.00D+00 EMaxC= 1.00D-01 BMatC= 1.51D-02 BMatP= 1.62D-01
 IDIUse=3 WtCom= 9.43D-01 WtEn= 5.74D-02
 Coeff-Com:  0.172D+00 0.828D+00
 Coeff-En:   0.292D+00 0.708D+00
 Coeff:      0.179D+00 0.821D+00
 Gap=     0.282 Goal=   None    Shift=    0.000
 RMSDP=5.17D-04 MaxDP=1.69D-02 DE=-4.64D-02 OVMax= 1.29D-01

 Cycle   3  Pass 1  IDiag  1:
 RMSU=  4.65D-04    CP:  9.82D-01  7.64D-01
 E= -155.103388640360     Delta-E=       -0.088297107203 Rises=F Damp=F
 DIIS: error= 3.91D-03 at cycle   3 NSaved=   3.
 NSaved= 3 IEnMin= 3 EnMin= -155.103388640360     IErMin= 3 ErrMin= 3.91D-03
 ErrMax= 3.91D-03  0.00D+00 EMaxC= 1.00D-01 BMatC= 6.79D-03 BMatP= 1.51D-02
 IDIUse=3 WtCom= 9.61D-01 WtEn= 3.91D-02
 Coeff-Com:  0.351D-01 0.402D+00 0.562D+00
 Coeff-En:   0.000D+00 0.000D+00 0.100D+01
 Coeff:      0.337D-01 0.387D+00 0.580D+00
 Gap=     0.266 Goal=   None    Shift=    0.000
 RMSDP=2.16D-04 MaxDP=7.11D-03 DE=-8.83D-02 OVMax= 1.98D-02

 Cycle   4  Pass 1  IDiag  1:
 RMSU=  1.93D-04    CP:  9.81D-01  8.25D-01  8.30D-01
 E= -155.107446485971     Delta-E=       -0.004057845610 Rises=F Damp=F
 DIIS: error= 2.13D-03 at cycle   4 NSaved=   4.
 NSaved= 4 IEnMin= 4 EnMin= -155.107446485971     IErMin= 4 ErrMin= 2.13D-03
 ErrMax= 2.13D-03  0.00D+00 EMaxC= 1.00D-01 BMatC= 1.16D-03 BMatP= 6.79D-03
 IDIUse=3 WtCom= 9.79D-01 WtEn= 2.13D-02
 Coeff-Com: -0.922D-02 0.880D-01 0.315D+00 0.606D+00
 Coeff-En:   0.000D+00 0.000D+00 0.143D+00 0.857D+00
 Coeff:     -0.903D-02 0.861D-01 0.312D+00 0.611D+00
 Gap=     0.266 Goal=   None    Shift=    0.000
 RMSDP=7.38D-05 MaxDP=2.62D-03 DE=-4.06D-03 OVMax= 7.07D-03

 Cycle   5  Pass 1  IDiag  1:
 RMSU=  4.89D-05    CP:  9.80D-01  8.35D-01  8.34D-01  7.21D-01
 E= -155.108376264450     Delta-E=       -0.000929778479 Rises=F Damp=F
 DIIS: error= 3.00D-04 at cycle   5 NSaved=   5.
 NSaved= 5 IEnMin= 5 EnMin= -155.108376264450     IErMin= 5 ErrMin= 3.00D-04
 ErrMax= 3.00D-04  0.00D+00 EMaxC= 1.00D-01 BMatC= 2.05D-05 BMatP= 1.16D-03
 IDIUse=3 WtCom= 9.97D-01 WtEn= 3.00D-03
 Coeff-Com: -0.436D-02 0.800D-02 0.722D-01 0.202D+00 0.722D+00
 Coeff-En:   0.000D+00 0.000D+00 0.000D+00 0.000D+00 0.100D+01
 Coeff:     -0.435D-02 0.798D-02 0.720D-01 0.201D+00 0.723D+00
 Gap=     0.266 Goal=   None    Shift=    0.000
 RMSDP=1.16D-05 MaxDP=3.85D-04 DE=-9.30D-04 OVMax= 1.15D-03

 Cycle   6  Pass 1  IDiag  1:
 RMSU=  9.28D-06    CP:  9.80D-01  8.35D-01  8.41D-01  7.39D-01  9.00D-01
 E= -155.108391302510     Delta-E=       -0.000015038060 Rises=F Damp=F
 DIIS: error= 6.54D-05 at cycle   6 NSaved=   6.
 NSaved= 6 IEnMin= 6 EnMin= -155.108391302510     IErMin= 6 ErrMin= 6.54D-05
 ErrMax= 6.54D-05  0.00D+00 EMaxC= 1.00D-01 BMatC= 1.35D-06 BMatP= 2.05D-05
 IDIUse=1 WtCom= 1.00D+00 WtEn= 0.00D+00
 Coeff-Com: -0.144D-02 0.112D-02 0.242D-01 0.747D-01 0.328D+00 0.574D+00
 Coeff:     -0.144D-02 0.112D-02 0.242D-01 0.747D-01 0.328D+00 0.574D+00
 Gap=     0.265 Goal=   None    Shift=    0.000
 RMSDP=2.69D-06 MaxDP=1.43D-04 DE=-1.50D-05 OVMax= 3.12D-04

 Cycle   7  Pass 1  IDiag  1:
 RMSU=  2.39D-06    CP:  9.80D-01  8.35D-01  8.41D-01  7.41D-01  9.12D-01
                    CP:  8.94D-01
 E= -155.108392428172     Delta-E=       -0.000001125663 Rises=F Damp=F
 DIIS: error= 1.76D-05 at cycle   7 NSaved=   7.
 NSaved= 7 IEnMin= 7 EnMin= -155.108392428172     IErMin= 7 ErrMin= 1.76D-05
 ErrMax= 1.76D-05  0.00D+00 EMaxC= 1.00D-01 BMatC= 7.79D-08 BMatP= 1.35D-06
 IDIUse=1 WtCom= 1.00D+00 WtEn= 0.00D+00
 Coeff-Com: -0.188D-04-0.523D-03 0.203D-02 0.820D-02 0.521D-01 0.222D+00
 Coeff-Com:  0.716D+00
 Coeff:     -0.188D-04-0.523D-03 0.203D-02 0.820D-02 0.521D-01 0.222D+00
 Coeff:      0.716D+00
 Gap=     0.265 Goal=   None    Shift=    0.000
 RMSDP=7.18D-07 MaxDP=3.33D-05 DE=-1.13D-06 OVMax= 7.25D-05

 Cycle   8  Pass 1  IDiag  1:
 RMSU=  5.37D-07    CP:  9.80D-01  8.35D-01  8.41D-01  7.41D-01  9.12D-01
                    CP:  9.11D-01  8.55D-01
 E= -155.108392498604     Delta-E=       -0.000000070432 Rises=F Damp=F
 DIIS: error= 3.90D-06 at cycle   8 NSaved=   8.
 NSaved= 8 IEnMin= 8 EnMin= -155.108392498604     IErMin= 8 ErrMin= 3.90D-06
 ErrMax= 3.90D-06  0.00D+00 EMaxC= 1.00D-01 BMatC= 2.16D-09 BMatP= 7.79D-08
 IDIUse=1 WtCom= 1.00D+00 WtEn= 0.00D+00
 Coeff-Com:  0.715D-04-0.205D-03-0.423D-03-0.749D-03 0.633D-03 0.406D-01
 Coeff-Com:  0.214D+00 0.746D+00
 Coeff:      0.715D-04-0.205D-03-0.423D-03-0.749D-03 0.633D-03 0.406D-01
 Coeff:      0.214D+00 0.746D+00
 Gap=     0.265 Goal=   None    Shift=    0.000
 RMSDP=1.49D-07 MaxDP=3.28D-06 DE=-7.04D-08 OVMax= 1.46D-05

 Cycle   9  Pass 1  IDiag  1:
 RMSU=  1.01D-07    CP:  9.80D-01  8.35D-01  8.41D-01  7.41D-01  9.13D-01
                    CP:  9.17D-01  8.71D-01  8.82D-01
 E= -155.108392500663     Delta-E=       -0.000000002058 Rises=F Damp=F
 DIIS: error= 4.00D-07 at cycle   9 NSaved=   9.
 NSaved= 9 IEnMin= 9 EnMin= -155.108392500663     IErMin= 9 ErrMin= 4.00D-07
 ErrMax= 4.00D-07  0.00D+00 EMaxC= 1.00D-01 BMatC= 3.09D-11 BMatP= 2.16D-09
 IDIUse=1 WtCom= 1.00D+00 WtEn= 0.00D+00
 Coeff-Com:  0.345D-05-0.940D-05-0.969D-04-0.167D-03-0.770D-03 0.117D-02
 Coeff-Com:  0.932D-02 0.801D-01 0.910D+00
 Coeff:      0.345D-05-0.940D-05-0.969D-04-0.167D-03-0.770D-03 0.117D-02
 Coeff:      0.932D-02 0.801D-01 0.910D+00
 Gap=     0.265 Goal=   None    Shift=    0.000
 RMSDP=1.90D-08 MaxDP=6.05D-07 DE=-2.06D-09 OVMax= 1.63D-06

 Cycle  10  Pass 1  IDiag  1:
 RMSU=  1.27D-08    CP:  9.80D-01  8.35D-01  8.41D-01  7.41D-01  9.13D-01
                    CP:  9.18D-01  8.72D-01  8.96D-01  9.91D-01
 E= -155.108392500697     Delta-E=       -0.000000000034 Rises=F Damp=F
 DIIS: error= 5.77D-08 at cycle  10 NSaved=  10.
 NSaved=10 IEnMin=10 EnMin= -155.108392500697     IErMin=10 ErrMin= 5.77D-08
 ErrMax= 5.77D-08  0.00D+00 EMaxC= 1.00D-01 BMatC= 5.97D-13 BMatP= 3.09D-11
 IDIUse=1 WtCom= 1.00D+00 WtEn= 0.00D+00
 Coeff-Com: -0.135D-05 0.237D-05-0.100D-04-0.143D-04-0.147D-03-0.669D-03
 Coeff-Com: -0.271D-02-0.317D-02 0.182D+00 0.825D+00
 Coeff:     -0.135D-05 0.237D-05-0.100D-04-0.143D-04-0.147D-03-0.669D-03
 Coeff:     -0.271D-02-0.317D-02 0.182D+00 0.825D+00
 Gap=     0.265 Goal=   None    Shift=    0.000
 RMSDP=3.19D-09 MaxDP=1.19D-07 DE=-3.42D-11 OVMax= 2.86D-07

 SCF Done:  E(RB3LYP) =  -155.108392501     A.U. after   10 cycles
            NFock= 10  Conv=0.32D-08     -V/T= 2.0070
 KE= 1.540261589714D+02 PE=-5.244370063500D+02 EE= 1.342232368098D+02
 Leave Link  502 at Sun May 15 14:10:39 2022, MaxMem=   134217728 cpu:             181.0 elap:             181.6
 (Enter /software/commercial/MERCURY/GAUSSIAN/SSE4/g16/l601.exe)
 Copying SCF densities to generalized density rwf, IOpCl= 0 IROHF=0.

 **********************************************************************

            Population analysis using the SCF Density.

 **********************************************************************

 Orbital symmetries:
       Occupied  (A') (A') (A') (A') (A') (A') (A') (A") (A') (A')
                 (A") (A') (A")
       Virtual   (A') (A') (A') (A") (A') (A") (A') (A') (A') (A")
                 (A') (A") (A') (A') (A') (A') (A") (A") (A') (A')
                 (A") (A') (A') (A") (A') (A') (A") (A') (A') (A")
                 (A') (A") (A') (A') (A") (A") (A') (A") (A') (A')
                 (A") (A') (A') (A') (A') (A") (A') (A") (A') (A")
                 (A') (A") (A') (A') (A') (A') (A") (A') (A") (A')
                 (A") (A') (A') (A") (A") (A') (A') (A') (A") (A")
                 (A') (A') (A") (A") (A") (A') (A') (A') (A') (A')
                 (A") (A') (A") (A') (A") (A') (A") (A') (A') (A")
                 (A') (A") (A') (A") (A') (A") (A') (A') (A") (A')
                 (A") (A') (A") (A') (A") (A') (A') (A") (A') (A')
                 (A") (A') (A") (A') (A") (A') (A') (A") (A") (A')
                 (A') (A") (A') (A') (A") (A') (A') (A") (A') (A')
                 (A") (A") (A') (A") (A') (A") (A') (A') (A") (A')
                 (A") (A') (A') (A') (A") (A") (A') (A') (A") (A")
                 (A') (A') (A') (A') (A") (A') (A") (A') (A") (A')
                 (A') (A') (A') (A') (A") (A') (A") (A') (A") (A')
                 (A") (A') (A") (A') (A") (A") (A') (A') (A") (A')
                 (A") (A') (A") (A') (A") (A') (A') (A") (A') (A")
                 (A') (A") (A") (A") (A') (A') (A") (A') (A") (A')
                 (A') (A") (A') (A') (A") (A") (A') (A') (A') (A')
                 (A") (A') (A') (A") (A') (A') (A") (A') (A') (A")
                 (A") (A') (A') (A") (A') (A") (A') (A") (A") (A')
                 (A') (A") (A') (A") (A') (A") (A') (A') (A") (A')
                 (A') (A') (A") (A') (A') (A") (A') (A") (A") (A')
                 (A") (A') (A") (A") (A') (A') (A") (A') (A') (A')
                 (A') (A') (A')
 The electronic state is 1-A'.
 Alpha  occ. eigenvalues --  -19.13626 -10.22362 -10.16336  -1.01859  -0.74793
 Alpha  occ. eigenvalues --   -0.61433  -0.51571  -0.46743  -0.40819  -0.38743
 Alpha  occ. eigenvalues --   -0.37270  -0.34106  -0.28155
 Alpha virt. eigenvalues --   -0.01605   0.00244   0.01396   0.01460   0.03505
 Alpha virt. eigenvalues --    0.04379   0.05764   0.06265   0.07545   0.07957
 Alpha virt. eigenvalues --    0.08478   0.09382   0.09567   0.11764   0.12084
 Alpha virt. eigenvalues --    0.12780   0.14204   0.15068   0.15917   0.17013
 Alpha virt. eigenvalues --    0.17059   0.19034   0.20871   0.21268   0.22798
 Alpha virt. eigenvalues --    0.23892   0.25374   0.25783   0.27634   0.28156
 Alpha virt. eigenvalues --    0.28896   0.29634   0.30037   0.31135   0.31157
 Alpha virt. eigenvalues --    0.32453   0.32849   0.33329   0.34045   0.34436
 Alpha virt. eigenvalues --    0.35446   0.35496   0.37837   0.39331   0.39719
 Alpha virt. eigenvalues --    0.40446   0.42552   0.44286   0.44685   0.45243
 Alpha virt. eigenvalues --    0.45631   0.45705   0.46582   0.50045   0.56991
 Alpha virt. eigenvalues --    0.58182   0.60115   0.61410   0.63231   0.64843
 Alpha virt. eigenvalues --    0.66627   0.67628   0.68188   0.70002   0.70813
 Alpha virt. eigenvalues --    0.71138   0.72813   0.74488   0.75751   0.76985
 Alpha virt. eigenvalues --    0.77757   0.80995   0.81113   0.81927   0.82604
 Alpha virt. eigenvalues --    0.83294   0.83645   0.86075   0.87353   0.89641
 Alpha virt. eigenvalues --    0.90828   0.92873   0.93833   0.93907   0.94949
 Alpha virt. eigenvalues --    0.96367   0.97252   0.98755   1.00499   1.00596
 Alpha virt. eigenvalues --    1.01154   1.03936   1.06474   1.06596   1.10104
 Alpha virt. eigenvalues --    1.11159   1.11403   1.13105   1.15203   1.20367
 Alpha virt. eigenvalues --    1.20466   1.22709   1.22940   1.26221   1.26521
 Alpha virt. eigenvalues --    1.28862   1.31352   1.32908   1.37239   1.38814
 Alpha virt. eigenvalues --    1.39609   1.42191   1.43113   1.43976   1.45990
 Alpha virt. eigenvalues --    1.47544   1.48290   1.49424   1.50291   1.51684
 Alpha virt. eigenvalues --    1.52421   1.53084   1.56247   1.58512   1.60239
 Alpha virt. eigenvalues --    1.63211   1.66899   1.68718   1.69415   1.73297
 Alpha virt. eigenvalues --    1.73824   1.77219   1.79746   1.81152   1.86461
 Alpha virt. eigenvalues --    1.87145   1.88518   1.92537   1.98014   2.01128
 Alpha virt. eigenvalues --    2.02428   2.03999   2.07422   2.14104   2.14111
 Alpha virt. eigenvalues --    2.18217   2.20214   2.22904   2.27092   2.28885
 Alpha virt. eigenvalues --    2.36733   2.44362   2.48297   2.55505   2.61419
 Alpha virt. eigenvalues --    2.61573   2.64520   2.67359   2.70539   2.71174
 Alpha virt. eigenvalues --    2.82139   2.89427   2.96002   3.03393   3.07084
 Alpha virt. eigenvalues --    3.11325   3.13149   3.19367   3.24396   3.26177
 Alpha virt. eigenvalues --    3.28047   3.31915   3.32525   3.35832   3.38585
 Alpha virt. eigenvalues --    3.41345   3.44062   3.46754   3.48775   3.52860
 Alpha virt. eigenvalues --    3.56071   3.60465   3.61337   3.62952   3.64773
 Alpha virt. eigenvalues --    3.66557   3.70750   3.71651   3.79733   3.79788
 Alpha virt. eigenvalues --    3.82636   3.85991   3.88196   3.90126   3.93642
 Alpha virt. eigenvalues --    3.98827   4.00137   4.08779   4.09777   4.10623
 Alpha virt. eigenvalues --    4.16181   4.19621   4.19933   4.25477   4.27321
 Alpha virt. eigenvalues --    4.33527   4.35398   4.38740   4.45543   4.47976
 Alpha virt. eigenvalues --    4.48444   4.53182   4.57767   4.57879   4.61159
 Alpha virt. eigenvalues --    4.67264   4.68765   4.73790   4.76165   4.77682
 Alpha virt. eigenvalues --    4.81761   4.84498   4.91585   4.91868   4.97066
 Alpha virt. eigenvalues --    5.01152   5.04844   5.05959   5.06572   5.14762
 Alpha virt. eigenvalues --    5.17381   5.19916   5.31635   5.36611   5.40984
 Alpha virt. eigenvalues --    5.47708   5.53828   5.62775   5.64112   5.68612
 Alpha virt. eigenvalues --    5.76211   5.83505   5.83647   5.89819   6.17086
 Alpha virt. eigenvalues --    6.28163   6.36304   6.39717   6.46563   6.46857
 Alpha virt. eigenvalues --    6.60230   6.74737   6.80229   6.95573   6.99035
 Alpha virt. eigenvalues --    7.06716   7.23778   7.37599   7.63259   7.93015
 Alpha virt. eigenvalues --   14.42068  16.60566  17.08084
          Condensed to atoms (all electrons):
               1          2          3          4          5          6
     1  C    4.965030   0.172936  -0.001925  -0.001925  -0.032388   0.046981
     2  C    0.172936   5.304698   0.409002   0.409002   0.423258  -0.021431
     3  H   -0.001925   0.409002   0.404041  -0.015580   0.000251  -0.004635
     4  H   -0.001925   0.409002  -0.015580   0.404041   0.000251  -0.004635
     5  H   -0.032388   0.423258   0.000251   0.000251   0.393910  -0.000734
     6  O    0.046981  -0.021431  -0.004635  -0.004635  -0.000734   8.331775
     7  H    0.013613   0.006014  -0.001908  -0.001908   0.000249   0.176618
     8  H    0.415731  -0.012712  -0.013574   0.010517   0.000059  -0.006798
     9  H    0.415731  -0.012712   0.010517  -0.013574   0.000059  -0.006798
               7          8          9
     1  C    0.013613   0.415731   0.415731
     2  C    0.006014  -0.012712  -0.012712
     3  H   -0.001908  -0.013574   0.010517
     4  H   -0.001908   0.010517  -0.013574
     5  H    0.000249   0.000059   0.000059
     6  O    0.176618  -0.006798  -0.006798
     7  H    0.634110   0.008460   0.008460
     8  H    0.008460   0.441569  -0.034846
     9  H    0.008460  -0.034846   0.441569
 Mulliken charges:
               1
     1  C    0.006217
     2  C   -0.678056
     3  H    0.213810
     4  H    0.213810
     5  H    0.215084
     6  O   -0.510345
     7  H    0.156293
     8  H    0.191593
     9  H    0.191593
 Sum of Mulliken charges =  -0.00000
 Mulliken charges with hydrogens summed into heavy atoms:
               1
     1  C    0.389403
     2  C   -0.035351
     6  O   -0.354052
 Electronic spatial extent (au):  <R**2>=            197.6294
 Charge=             -0.0000 electrons
 Dipole moment (field-independent basis, Debye):
    X=             -0.2525    Y=              1.6485    Z=              0.0000  Tot=              1.6677
 Quadrupole moment (field-independent basis, Debye-Ang):
   XX=            -18.5626   YY=            -20.0967   ZZ=            -20.4914
   XY=              2.6194   XZ=              0.0000   YZ=              0.0000
 Traceless Quadrupole moment (field-independent basis, Debye-Ang):
   XX=              1.1543   YY=             -0.3798   ZZ=             -0.7745
   XY=              2.6194   XZ=              0.0000   YZ=              0.0000
 Octapole moment (field-independent basis, Debye-Ang**2):
  XXX=             12.0659  YYY=              0.1052  ZZZ=             -0.0000  XYY=              2.0911
  XXY=              5.1201  XXZ=             -0.0000  XZZ=              0.9677  YZZ=              0.0185
  YYZ=             -0.0000  XYZ=             -0.0000
 Hexadecapole moment (field-independent basis, Debye-Ang**3):
 XXXX=           -143.0253 YYYY=            -64.8396 ZZZZ=            -35.4120 XXXY=             -3.9508
 XXXZ=              0.0000 YYYX=             -9.0756 YYYZ=              0.0000 ZZZX=             -0.0000
 ZZZY=              0.0000 XXYY=            -36.7935 XXZZ=            -35.0772 YYZZ=            -15.2268
 XXYZ=              0.0000 YYXZ=              0.0000 ZZXY=             -2.3622
 N-N= 8.107921806813D+01 E-N=-5.244370044970D+02  KE= 1.540261589714D+02
 Symmetry A'   KE= 1.453721391432D+02
 Symmetry A"   KE= 8.654019828141D+00
 No NMR shielding tensors so no spin-rotation constants.
 Leave Link  601 at Sun May 15 14:10:39 2022, MaxMem=   134217728 cpu:               0.3 elap:               0.4
 (Enter /software/commercial/MERCURY/GAUSSIAN/SSE4/g16/l701.exe)
 ... and contract with generalized density number  0.
 Compute integral first derivatives.
 Leave Link  701 at Sun May 15 14:10:39 2022, MaxMem=   134217728 cpu:               0.2 elap:               0.2
 (Enter /software/commercial/MERCURY/GAUSSIAN/SSE4/g16/l702.exe)
 L702 exits ... SP integral derivatives will be done elsewhere.
 Leave Link  702 at Sun May 15 14:10:39 2022, MaxMem=   134217728 cpu:               0.0 elap:               0.0
 (Enter /software/commercial/MERCURY/GAUSSIAN/SSE4/g16/l703.exe)
 Integral derivatives from FoFJK, PRISM(SPDF).
 Compute integral first derivatives, UseDBF=F ICtDFT=           0.
 Calling FoFJK, ICntrl=      2127 FMM=F ISym2X=1 I1Cent= 0 IOpClX= 0 NMat=1 NMatS=1 NMatT=0.
 FoFJK:  IHMeth= 1 ICntrl=    2127 DoSepK=F KAlg= 0 I1Cent=           0 FoldK=F
 IRaf=         0 NMat=       1 IRICut=       1 DoRegI=T DoRafI=F ISym2E= 1 IDoP0=0 IntGTp=1.
 FoFCou: FMM=F IPFlag=           0 FMFlag=      100000 FMFlg1=         800
         NFxFlg=           0 DoJE=F BraDBF=F KetDBF=F FulRan=T
         wScrn=  0.000000 ICntrl=      2127 IOpCl=  0 I1Cent=           0 NGrid=           0
         NMat0=    1 NMatS0=      1 NMatT0=    0 NMatD0=    1 NMtDS0=    0 NMtDT0=    0
 Petite list used in FoFCou.
 Leave Link  703 at Sun May 15 14:11:54 2022, MaxMem=   134217728 cpu:              74.4 elap:              74.7
 (Enter /software/commercial/MERCURY/GAUSSIAN/SSE4/g16/l716.exe)
 Dipole        =-9.93534591D-02 6.48553067D-01 2.22044605D-16
 ***** Axes restored to original set *****
 -------------------------------------------------------------------
 Center     Atomic                   Forces (Hartrees/Bohr)
 Number     Number              X              Y              Z
 -------------------------------------------------------------------
      1        6           0.018361646   -0.001126227   -0.001950829
      2        6          -0.015316092    0.000713967    0.001236720
      3        1           0.000876576    0.002578611   -0.000059697
      4        1           0.000876576   -0.001341147    0.002203208
      5        1           0.000873497   -0.001440093   -0.002494501
      6        8          -0.029936466   -0.006593094   -0.011420425
      7        1           0.024801041    0.004678197    0.008103480
      8        1          -0.000268390    0.001161824    0.002250525
      9        1          -0.000268390    0.001367962    0.002131520
 -------------------------------------------------------------------
 Cartesian Forces:  Max     0.029936466 RMS     0.009405380
 Leave Link  716 at Sun May 15 14:11:54 2022, MaxMem=   134217728 cpu:               0.0 elap:               0.0
 (Enter /software/commercial/MERCURY/GAUSSIAN/SSE4/g16/l103.exe)

 GradGradGradGradGradGradGradGradGradGradGradGradGradGradGradGradGradGrad
 Berny optimization.
 FormGI is forming the generalized inverse of G from B-inverse, IUseBI=4.
 Internal  Forces:  Max     0.025337098 RMS     0.005662207
 Search for a local minimum.
 Step number   1 out of a maximum of   43
 All quantities printed in internal units (Hartrees-Bohrs-Radians)
 RMS Force = .56622D-02 SwitMx=.10000D-02 MixMth= 1
 Mixed Optimization -- RFO/linear search
 Second derivative matrix not updated -- first step.
 ITU=  0
     Eigenvalues ---    0.00230   0.01222   0.05147   0.05569   0.05572
     Eigenvalues ---    0.05889   0.11029   0.13640   0.16000   0.16000
     Eigenvalues ---    0.16000   0.16000   0.21962   0.28369   0.33969
     Eigenvalues ---    0.33969   0.35308   0.35329   0.35329   0.40208
     Eigenvalues ---    0.49312
 RFO step:  Lambda=-3.38161814D-03 EMin= 2.30000000D-03
 Linear search not attempted -- first point.
 Iteration  1 RMS(Cart)=  0.02467545 RMS(Int)=  0.00107439
 Iteration  2 RMS(Cart)=  0.00115473 RMS(Int)=  0.00004817
 Iteration  3 RMS(Cart)=  0.00000176 RMS(Int)=  0.00004816
 Iteration  4 RMS(Cart)=  0.00000000 RMS(Int)=  0.00004816
 ITry= 1 IFail=0 DXMaxC= 7.91D-02 DCOld= 1.00D+10 DXMaxT= 3.00D-01 DXLimC= 3.00D+00 Rises=F
 ClnCor:  largest displacement from symmetrization is 4.77D-09 for atom     9.
 Variable       Old X    -DE/DX   Delta X   Delta X   Delta X     New X
                                 (Linear)    (Quad)   (Total)
    R1        2.91338  -0.01270   0.00000  -0.04425  -0.04425   2.86913
    R2        2.71272  -0.00210   0.00000  -0.00519  -0.00519   2.70753
    R3        2.07382  -0.00123   0.00000  -0.00360  -0.00360   2.07023
    R4        2.07382  -0.00123   0.00000  -0.00360  -0.00360   2.07023
    R5        2.05143   0.00272   0.00000   0.00763   0.00763   2.05907
    R6        2.05143   0.00272   0.00000   0.00763   0.00763   2.05907
    R7        2.05178   0.00301   0.00000   0.00844   0.00844   2.06021
    R8        1.87266  -0.02534   0.00000  -0.05103  -0.05103   1.82163
    A1        1.89230   0.00024   0.00000  -0.00232  -0.00230   1.89000
    A2        1.91007   0.00086   0.00000   0.00910   0.00901   1.91909
    A3        1.91007   0.00086   0.00000   0.00910   0.00901   1.91909
    A4        1.93987  -0.00129   0.00000  -0.01463  -0.01462   1.92525
    A5        1.93987  -0.00129   0.00000  -0.01463  -0.01462   1.92525
    A6        1.87147   0.00067   0.00000   0.01411   0.01391   1.88538
    A7        1.92472  -0.00008   0.00000  -0.00036  -0.00036   1.92436
    A8        1.92472  -0.00008   0.00000  -0.00036  -0.00036   1.92436
    A9        1.92325  -0.00016   0.00000  -0.00118  -0.00118   1.92207
   A10        1.89392   0.00012   0.00000   0.00112   0.00112   1.89504
   A11        1.89830   0.00010   0.00000   0.00042   0.00042   1.89872
   A12        1.89830   0.00010   0.00000   0.00042   0.00042   1.89872
   A13        1.81444   0.01458   0.00000   0.08927   0.08927   1.90371
    D1       -1.04570  -0.00003   0.00000  -0.00046  -0.00046  -1.04616
    D2        1.04570   0.00003   0.00000   0.00046   0.00046   1.04616
    D3        3.14159   0.00000   0.00000  -0.00000   0.00000   3.14159
    D4        1.07285  -0.00093   0.00000  -0.01425  -0.01431   1.05854
    D5       -3.11895  -0.00087   0.00000  -0.01332  -0.01338  -3.13233
    D6       -1.02305  -0.00090   0.00000  -0.01379  -0.01384  -1.03689
    D7        3.11895   0.00087   0.00000   0.01332   0.01338   3.13233
    D8       -1.07285   0.00093   0.00000   0.01425   0.01431  -1.05854
    D9        1.02305   0.00090   0.00000   0.01379   0.01384   1.03689
   D10        3.14159  -0.00000   0.00000  -0.00000  -0.00000   3.14159
   D11        1.04149  -0.00043   0.00000  -0.00078  -0.00076   1.04073
   D12       -1.04149   0.00043   0.00000   0.00078   0.00076  -1.04073
         Item               Value     Threshold  Converged?
 Maximum Force            0.025337     0.000450     NO 
 RMS     Force            0.005662     0.000300     NO 
 Maximum Displacement     0.079054     0.001800     NO 
 RMS     Displacement     0.024498     0.001200     NO 
 Predicted change in Energy=-1.716420D-03
 Lowest energy point so far.  Saving SCF results.
 GradGradGradGradGradGradGradGradGradGradGradGradGradGradGradGradGradGrad

 Leave Link  103 at Sun May 15 14:11:54 2022, MaxMem=   134217728 cpu:               0.1 elap:               0.1
 (Enter /software/commercial/MERCURY/GAUSSIAN/SSE4/g16/l202.exe)
                          Input orientation:                          
 ---------------------------------------------------------------------
 Center     Atomic      Atomic             Coordinates (Angstroms)
 Number     Number       Type             X           Y           Z
 ---------------------------------------------------------------------
      1          6           0       -0.002989    0.003464    0.006001
      2          6           0        1.515288    0.002557    0.004429
      3          1           0        1.893169    1.024544    0.005132
      4          1           0        1.893169   -0.507885    0.889814
      5          1           0        1.889203   -0.509460   -0.882477
      6          8           0       -0.450978    0.683888    1.184618
      7          1           0       -1.414835    0.691070    1.197057
      8          1           0       -0.377507    0.509371   -0.890635
      9          1           0       -0.377506   -1.025997   -0.004256
 ---------------------------------------------------------------------
                    Distance matrix (angstroms):
                    1          2          3          4          5
     1  C    0.000000
     2  C    1.518278   0.000000
     3  H    2.153606   1.089611   0.000000
     4  H    2.153606   1.089611   1.769463   0.000000
     5  H    2.152411   1.090219   1.772296   1.772296   0.000000
     6  O    1.432763   2.392333   2.646178   2.646178   3.342665
     7  H    1.970971   3.237597   3.531966   3.531966   4.084410
     8  H    1.095518   2.154221   2.494748   3.059538   2.485167
     9  H    1.095518   2.154221   3.059538   2.494748   2.485167
                    6          7          8          9
     6  O    0.000000
     7  H    0.963964   0.000000
     8  H    2.083873   2.338274   0.000000
     9  H    2.083873   2.338274   1.772857   0.000000
 Stoichiometry    C2H6O
 Framework group  CS[SG(C2H2O),X(H4)]
 Deg. of freedom    13
 Full point group                 CS      NOp   2
 RotChk:  IX=2 Diff= 3.90D-02
 Largest Abelian subgroup         CS      NOp   2
 Largest concise Abelian subgroup CS      NOp   2
                         Standard orientation:                         
 ---------------------------------------------------------------------
 Center     Atomic      Atomic             Coordinates (Angstroms)
 Number     Number       Type             X           Y           Z
 ---------------------------------------------------------------------
      1          6           0        0.000000    0.553755   -0.000000
      2          6           0       -1.182031   -0.399120    0.000000
      3          1           0       -1.154400   -1.034524   -0.884732
      4          1           0       -1.154400   -1.034524    0.884732
      5          1           0       -2.116531    0.162384    0.000000
      6          8           0        1.203823   -0.223174   -0.000000
      7          1           0        1.962524    0.371470   -0.000000
      8          1           0       -0.037796    1.196386   -0.886428
      9          1           0       -0.037796    1.196386    0.886428
 ---------------------------------------------------------------------
 Rotational constants (GHZ):          35.3023906           9.2760757           8.0893538
 Leave Link  202 at Sun May 15 14:11:54 2022, MaxMem=   134217728 cpu:               0.0 elap:               0.0
 (Enter /software/commercial/MERCURY/GAUSSIAN/SSE4/g16/l301.exe)
 Standard basis: Aug-CC-pVTZ (5D, 7F)
 Ernie: Thresh=  0.10000D-02 Tol=  0.10000D-05 Strict=F.
 Ernie:  9 primitive shells out of 156 were deleted.
 There are   197 symmetry adapted cartesian basis functions of A'  symmetry.
 There are   118 symmetry adapted cartesian basis functions of A"  symmetry.
 There are   168 symmetry adapted basis functions of A'  symmetry.
 There are   108 symmetry adapted basis functions of A"  symmetry.
   276 basis functions,   378 primitive gaussians,   315 cartesian basis functions
    13 alpha electrons       13 beta electrons
       nuclear repulsion energy        81.5863061979 Hartrees.
 IExCor=  402 DFT=T Ex+Corr=B3LYP ExCW=0 ScaHFX=  0.200000
 ScaDFX=  0.800000  0.720000  1.000000  0.810000 ScalE2=  1.000000  1.000000
 IRadAn=      5 IRanWt=     -1 IRanGd=            0 ICorTp=0 IEmpDi=  4
 NAtoms=    9 NActive=    9 NUniq=    7 SFac= 1.65D+00 NAtFMM=   60 NAOKFM=F Big=F
 Integral buffers will be    131072 words long.
 Raffenetti 2 integral format.
 Two-electron integral symmetry is turned on.
 Leave Link  301 at Sun May 15 14:11:54 2022, MaxMem=   134217728 cpu:               0.1 elap:               0.1
 (Enter /software/commercial/MERCURY/GAUSSIAN/SSE4/g16/l302.exe)
 NPDir=0 NMtPBC=     1 NCelOv=     1 NCel=       1 NClECP=     1 NCelD=      1
         NCelK=      1 NCelE2=     1 NClLst=     1 CellRange=     0.0.
 One-electron integrals computed using PRISM.
 One-electron integral symmetry used in STVInt
 NBasis=   276 RedAO= T EigKep=  1.93D-05  NBF=   168   108
 NBsUse=   276 1.00D-06 EigRej= -1.00D+00 NBFU=   168   108
 Precomputing XC quadrature grid using
 IXCGrd= 4 IRadAn=           5 IRanWt=          -1 IRanGd=           0 AccXCQ= 0.00D+00.
 Generated NRdTot=       0 NPtTot=           0 NUsed=           0 NTot=          32
 NSgBfM=   315   315   315   315   315 MxSgAt=     9 MxSgA2=     9.
 Leave Link  302 at Sun May 15 14:11:55 2022, MaxMem=   134217728 cpu:               0.3 elap:               0.3
 (Enter /software/commercial/MERCURY/GAUSSIAN/SSE4/g16/l303.exe)
 DipDrv:  MaxL=1.
 Leave Link  303 at Sun May 15 14:11:55 2022, MaxMem=   134217728 cpu:               0.1 elap:               0.1
 (Enter /software/commercial/MERCURY/GAUSSIAN/SSE4/g16/l401.exe)
 Initial guess from the checkpoint file:  "/home/thomasegg/AlcoholMixtureSpec/Gau-1082573.chk"
 B after Tr=    -0.000000    0.000000   -0.000000
         Rot=    0.999940   -0.000000   -0.000000    0.010950 Ang=   1.25 deg.
 Guess basis will be translated and rotated to current coordinates.
 JPrj=2 DoOrth=T DoCkMO=T.
 Initial guess orbital symmetries:
       Occupied  (A') (A') (A') (A') (A') (A') (A') (A") (A') (A')
                 (A") (A') (A")
       Virtual   (A') (A') (A') (A") (A') (A") (A') (A') (A') (A")
                 (A') (A") (A') (A') (A') (A') (A") (A") (A') (A')
                 (A") (A') (A') (A") (A') (A') (A") (A') (A') (A")
                 (A') (A") (A') (A') (A") (A") (A') (A") (A') (A')
                 (A") (A') (A') (A') (A') (A") (A') (A") (A') (A")
                 (A') (A") (A') (A') (A') (A') (A") (A') (A") (A')
                 (A") (A') (A') (A") (A") (A') (A') (A') (A") (A")
                 (A') (A') (A") (A") (A") (A') (A') (A') (A') (A')
                 (A") (A') (A") (A') (A") (A') (A") (A') (A') (A")
                 (A') (A") (A') (A") (A') (A") (A') (A') (A") (A')
                 (A") (A') (A") (A') (A") (A') (A') (A") (A') (A')
                 (A") (A') (A") (A') (A") (A') (A') (A") (A") (A')
                 (A') (A") (A') (A') (A") (A') (A') (A") (A') (A')
                 (A") (A") (A') (A") (A') (A") (A') (A') (A") (A')
                 (A") (A') (A') (A') (A") (A") (A') (A') (A") (A")
                 (A') (A') (A') (A') (A") (A') (A") (A') (A") (A')
                 (A') (A') (A') (A') (A") (A') (A") (A') (A") (A')
                 (A") (A') (A") (A') (A") (A") (A') (A') (A") (A')
                 (A") (A') (A") (A') (A") (A') (A') (A") (A') (A")
                 (A') (A") (A") (A") (A') (A') (A") (A') (A") (A')
                 (A') (A") (A') (A') (A") (A") (A') (A') (A') (A')
                 (A") (A') (A') (A") (A') (A') (A") (A') (A') (A")
                 (A") (A') (A') (A") (A') (A") (A') (A") (A") (A')
                 (A') (A") (A') (A") (A') (A") (A') (A') (A") (A')
                 (A') (A') (A") (A') (A') (A") (A') (A") (A") (A')
                 (A") (A') (A") (A") (A') (A') (A") (A') (A') (A')
                 (A') (A') (A')
 The electronic state of the initial guess is 1-A'.
 Generating alternative initial guess.
 ExpMin= 2.53D-02 ExpMax= 1.53D+04 ExpMxC= 5.22D+02 IAcc=3 IRadAn=         5 AccDes= 0.00D+00
 Harris functional with IExCor=  402 and IRadAn=       5 diagonalized for initial guess.
 HarFok:  IExCor=  402 AccDes= 0.00D+00 IRadAn=         5 IDoV= 1 UseB2=F ITyADJ=14
 ICtDFT=  3500011 ScaDFX=  1.000000  1.000000  1.000000  1.000000
 FoFCou: FMM=F IPFlag=           0 FMFlag=      100000 FMFlg1=           0
         NFxFlg=           0 DoJE=T BraDBF=F KetDBF=T FulRan=T
         wScrn=  0.000000 ICntrl=       500 IOpCl=  0 I1Cent=   200000004 NGrid=           0
         NMat0=    1 NMatS0=      1 NMatT0=    0 NMatD0=    1 NMtDS0=    0 NMtDT0=    0
 Petite list used in FoFCou.
 Harris En= -155.157531298851    
 Leave Link  401 at Sun May 15 14:11:59 2022, MaxMem=   134217728 cpu:               4.5 elap:               4.6
 (Enter /software/commercial/MERCURY/GAUSSIAN/SSE4/g16/l502.exe)
 Integral symmetry usage will be decided dynamically.
 Closed shell SCF:
 Using DIIS extrapolation, IDIIS=  1040.
 NGot=   134217728 LenX=   134013783 LenY=   133914117
 Requested convergence on RMS density matrix=1.00D-08 within 128 cycles.
 Requested convergence on MAX density matrix=1.00D-06.
 Requested convergence on             energy=1.00D-06.
 No special actions if energy rises.
 Fock matrices will be formed incrementally for  20 cycles.

 Cycle   1  Pass 1  IDiag  1:
 FoFJK:  IHMeth= 1 ICntrl=       0 DoSepK=F KAlg= 0 I1Cent=           0 FoldK=F
 IRaf= 990000000 NMat=       1 IRICut=       1 DoRegI=T DoRafI=F ISym2E= 1 IDoP0=0 IntGTp=1.
 FoFCou: FMM=F IPFlag=           0 FMFlag=      100000 FMFlg1=           0
         NFxFlg=           0 DoJE=F BraDBF=F KetDBF=F FulRan=T
         wScrn=  0.000000 ICntrl=         0 IOpCl=  0 I1Cent=           0 NGrid=           0
         NMat0=    1 NMatS0=      1 NMatT0=    0 NMatD0=    1 NMtDS0=    0 NMtDT0=    0
 Petite list used in FoFCou.
 E= -155.108973712239    
 DIIS: error= 1.79D-03 at cycle   1 NSaved=   1.
 NSaved= 1 IEnMin= 1 EnMin= -155.108973712239     IErMin= 1 ErrMin= 1.79D-03
 ErrMax= 1.79D-03  0.00D+00 EMaxC= 1.00D-01 BMatC= 1.41D-03 BMatP= 1.41D-03
 IDIUse=3 WtCom= 9.82D-01 WtEn= 1.79D-02
 Coeff-Com:  0.100D+01
 Coeff-En:   0.100D+01
 Coeff:      0.100D+01
 Gap=     0.298 Goal=   None    Shift=    0.000
 GapD=    0.298 DampG=1.000 DampE=1.000 DampFc=1.0000 IDamp=-1.
 RMSDP=2.28D-04 MaxDP=1.13D-02              OVMax= 1.25D-02

 Cycle   2  Pass 1  IDiag  1:
 RMSU=  2.28D-04    CP:  1.00D+00
 E= -155.110180548218     Delta-E=       -0.001206835979 Rises=F Damp=F
 DIIS: error= 4.12D-04 at cycle   2 NSaved=   2.
 NSaved= 2 IEnMin= 2 EnMin= -155.110180548218     IErMin= 2 ErrMin= 4.12D-04
 ErrMax= 4.12D-04  0.00D+00 EMaxC= 1.00D-01 BMatC= 4.70D-05 BMatP= 1.41D-03
 IDIUse=3 WtCom= 9.96D-01 WtEn= 4.12D-03
 Coeff-Com:  0.379D-01 0.962D+00
 Coeff-En:   0.000D+00 0.100D+01
 Coeff:      0.378D-01 0.962D+00
 Gap=     0.267 Goal=   None    Shift=    0.000
 RMSDP=3.18D-05 MaxDP=2.12D-03 DE=-1.21D-03 OVMax= 2.43D-03

 Cycle   3  Pass 1  IDiag  1:
 RMSU=  3.15D-05    CP:  1.00D+00  1.00D+00
 E= -155.110192194092     Delta-E=       -0.000011645874 Rises=F Damp=F
 DIIS: error= 2.91D-04 at cycle   3 NSaved=   3.
 NSaved= 3 IEnMin= 3 EnMin= -155.110192194092     IErMin= 3 ErrMin= 2.91D-04
 ErrMax= 2.91D-04  0.00D+00 EMaxC= 1.00D-01 BMatC= 3.24D-05 BMatP= 4.70D-05
 IDIUse=3 WtCom= 9.97D-01 WtEn= 2.91D-03
 Coeff-Com: -0.873D-02 0.448D+00 0.561D+00
 Coeff-En:   0.000D+00 0.375D+00 0.625D+00
 Coeff:     -0.871D-02 0.448D+00 0.561D+00
 Gap=     0.266 Goal=   None    Shift=    0.000
 RMSDP=1.39D-05 MaxDP=6.35D-04 DE=-1.16D-05 OVMax= 1.48D-03

 Cycle   4  Pass 1  IDiag  1:
 RMSU=  9.13D-06    CP:  1.00D+00  1.02D+00  6.85D-01
 E= -155.110212163399     Delta-E=       -0.000019969307 Rises=F Damp=F
 DIIS: error= 1.25D-04 at cycle   4 NSaved=   4.
 NSaved= 4 IEnMin= 4 EnMin= -155.110212163399     IErMin= 4 ErrMin= 1.25D-04
 ErrMax= 1.25D-04  0.00D+00 EMaxC= 1.00D-01 BMatC= 5.32D-06 BMatP= 3.24D-05
 IDIUse=3 WtCom= 9.99D-01 WtEn= 1.25D-03
 Coeff-Com: -0.757D-02 0.150D+00 0.324D+00 0.534D+00
 Coeff-En:   0.000D+00 0.000D+00 0.974D-01 0.903D+00
 Coeff:     -0.756D-02 0.149D+00 0.324D+00 0.534D+00
 Gap=     0.266 Goal=   None    Shift=    0.000
 RMSDP=4.32D-06 MaxDP=1.66D-04 DE=-2.00D-05 OVMax= 5.10D-04

 Cycle   5  Pass 1  IDiag  1:
 RMSU=  2.26D-06    CP:  1.00D+00  1.02D+00  7.13D-01  6.11D-01
 E= -155.110215687374     Delta-E=       -0.000003523975 Rises=F Damp=F
 DIIS: error= 2.12D-05 at cycle   5 NSaved=   5.
 NSaved= 5 IEnMin= 5 EnMin= -155.110215687374     IErMin= 5 ErrMin= 2.12D-05
 ErrMax= 2.12D-05  0.00D+00 EMaxC= 1.00D-01 BMatC= 1.51D-07 BMatP= 5.32D-06
 IDIUse=1 WtCom= 1.00D+00 WtEn= 0.00D+00
 Coeff-Com: -0.303D-02 0.457D-01 0.121D+00 0.244D+00 0.592D+00
 Coeff:     -0.303D-02 0.457D-01 0.121D+00 0.244D+00 0.592D+00
 Gap=     0.266 Goal=   None    Shift=    0.000
 RMSDP=1.06D-06 MaxDP=3.44D-05 DE=-3.52D-06 OVMax= 1.10D-04

 Cycle   6  Pass 1  IDiag  1:
 RMSU=  7.94D-07    CP:  1.00D+00  1.02D+00  7.19D-01  6.50D-01  7.53D-01
 E= -155.110215798961     Delta-E=       -0.000000111587 Rises=F Damp=F
 DIIS: error= 6.13D-06 at cycle   6 NSaved=   6.
 NSaved= 6 IEnMin= 6 EnMin= -155.110215798961     IErMin= 6 ErrMin= 6.13D-06
 ErrMax= 6.13D-06  0.00D+00 EMaxC= 1.00D-01 BMatC= 1.42D-08 BMatP= 1.51D-07
 IDIUse=1 WtCom= 1.00D+00 WtEn= 0.00D+00
 Coeff-Com: -0.268D-03-0.650D-03 0.105D-01 0.402D-01 0.268D+00 0.682D+00
 Coeff:     -0.268D-03-0.650D-03 0.105D-01 0.402D-01 0.268D+00 0.682D+00
 Gap=     0.266 Goal=   None    Shift=    0.000
 RMSDP=2.71D-07 MaxDP=1.31D-05 DE=-1.12D-07 OVMax= 3.08D-05

 Cycle   7  Pass 1  IDiag  1:
 RMSU=  1.52D-07    CP:  1.00D+00  1.02D+00  7.21D-01  6.51D-01  8.15D-01
                    CP:  7.94D-01
 E= -155.110215811058     Delta-E=       -0.000000012097 Rises=F Damp=F
 DIIS: error= 8.75D-07 at cycle   7 NSaved=   7.
 NSaved= 7 IEnMin= 7 EnMin= -155.110215811058     IErMin= 7 ErrMin= 8.75D-07
 ErrMax= 8.75D-07  0.00D+00 EMaxC= 1.00D-01 BMatC= 1.35D-10 BMatP= 1.42D-08
 IDIUse=1 WtCom= 1.00D+00 WtEn= 0.00D+00
 Coeff-Com:  0.201D-04-0.187D-02-0.170D-02 0.240D-02 0.501D-01 0.175D+00
 Coeff-Com:  0.776D+00
 Coeff:      0.201D-04-0.187D-02-0.170D-02 0.240D-02 0.501D-01 0.175D+00
 Coeff:      0.776D+00
 Gap=     0.266 Goal=   None    Shift=    0.000
 RMSDP=4.25D-08 MaxDP=1.65D-06 DE=-1.21D-08 OVMax= 3.01D-06

 Cycle   8  Pass 1  IDiag  1:
 RMSU=  3.41D-08    CP:  1.00D+00  1.02D+00  7.21D-01  6.53D-01  8.15D-01
                    CP:  8.00D-01  9.01D-01
 E= -155.110215811168     Delta-E=       -0.000000000110 Rises=F Damp=F
 DIIS: error= 2.07D-07 at cycle   8 NSaved=   8.
 NSaved= 8 IEnMin= 8 EnMin= -155.110215811168     IErMin= 8 ErrMin= 2.07D-07
 ErrMax= 2.07D-07  0.00D+00 EMaxC= 1.00D-01 BMatC= 7.76D-12 BMatP= 1.35D-10
 IDIUse=1 WtCom= 1.00D+00 WtEn= 0.00D+00
 Coeff-Com:  0.157D-04-0.604D-03-0.912D-03-0.474D-03 0.831D-02 0.380D-01
 Coeff-Com:  0.253D+00 0.703D+00
 Coeff:      0.157D-04-0.604D-03-0.912D-03-0.474D-03 0.831D-02 0.380D-01
 Coeff:      0.253D+00 0.703D+00
 Gap=     0.266 Goal=   None    Shift=    0.000
 RMSDP=8.72D-09 MaxDP=3.33D-07 DE=-1.10D-10 OVMax= 1.13D-06

 SCF Done:  E(RB3LYP) =  -155.110215811     A.U. after    8 cycles
            NFock=  8  Conv=0.87D-08     -V/T= 2.0066
 KE= 1.540946949493D+02 PE=-5.255048766858D+02 EE= 1.347136597274D+02
 Leave Link  502 at Sun May 15 14:14:28 2022, MaxMem=   134217728 cpu:             148.0 elap:             148.5
 (Enter /software/commercial/MERCURY/GAUSSIAN/SSE4/g16/l701.exe)
 ... and contract with generalized density number  0.
 Compute integral first derivatives.
 Leave Link  701 at Sun May 15 14:14:28 2022, MaxMem=   134217728 cpu:               0.2 elap:               0.3
 (Enter /software/commercial/MERCURY/GAUSSIAN/SSE4/g16/l702.exe)
 L702 exits ... SP integral derivatives will be done elsewhere.
 Leave Link  702 at Sun May 15 14:14:28 2022, MaxMem=   134217728 cpu:               0.0 elap:               0.0
 (Enter /software/commercial/MERCURY/GAUSSIAN/SSE4/g16/l703.exe)
 Integral derivatives from FoFJK, PRISM(SPDF).
 Compute integral first derivatives, UseDBF=F ICtDFT=           0.
 Calling FoFJK, ICntrl=      2127 FMM=F ISym2X=1 I1Cent= 0 IOpClX= 0 NMat=1 NMatS=1 NMatT=0.
 FoFJK:  IHMeth= 1 ICntrl=    2127 DoSepK=F KAlg= 0 I1Cent=           0 FoldK=F
 IRaf=         0 NMat=       1 IRICut=       1 DoRegI=T DoRafI=F ISym2E= 1 IDoP0=0 IntGTp=1.
 FoFCou: FMM=F IPFlag=           0 FMFlag=      100000 FMFlg1=         800
         NFxFlg=           0 DoJE=F BraDBF=F KetDBF=F FulRan=T
         wScrn=  0.000000 ICntrl=      2127 IOpCl=  0 I1Cent=           0 NGrid=           0
         NMat0=    1 NMatS0=      1 NMatT0=    0 NMatD0=    1 NMtDS0=    0 NMtDT0=    0
 Petite list used in FoFCou.
 Leave Link  703 at Sun May 15 14:15:45 2022, MaxMem=   134217728 cpu:              75.8 elap:              76.1
 (Enter /software/commercial/MERCURY/GAUSSIAN/SSE4/g16/l716.exe)
 Dipole        =-6.38970444D-02 6.21374315D-01-1.11022302D-15
 ***** Axes restored to original set *****
 -------------------------------------------------------------------
 Center     Atomic                   Forces (Hartrees/Bohr)
 Number     Number              X              Y              Z
 -------------------------------------------------------------------
      1        6           0.001590657    0.000386005    0.000668629
      2        6          -0.003503187    0.000460157    0.000797075
      3        1           0.000674872   -0.000015244    0.000006122
      4        1           0.000674872    0.000012924   -0.000010140
      5        1           0.000453638   -0.000037512   -0.000064977
      6        8          -0.001822885   -0.000800748   -0.001387039
      7        1           0.002849533   -0.000084109   -0.000145692
      8        1          -0.000458749   -0.000114593    0.000156833
      9        1          -0.000458749    0.000193119   -0.000020811
 -------------------------------------------------------------------
 Cartesian Forces:  Max     0.003503187 RMS     0.001086977
 Leave Link  716 at Sun May 15 14:15:45 2022, MaxMem=   134217728 cpu:               0.0 elap:               0.0
 (Enter /software/commercial/MERCURY/GAUSSIAN/SSE4/g16/l103.exe)

 GradGradGradGradGradGradGradGradGradGradGradGradGradGradGradGradGradGrad
 Berny optimization.
 Using GEDIIS/GDIIS optimizer.
 FormGI is forming the generalized inverse of G from B-inverse, IUseBI=4.
 Internal  Forces:  Max     0.002851430 RMS     0.000769308
 Search for a local minimum.
 Step number   2 out of a maximum of   43
 All quantities printed in internal units (Hartrees-Bohrs-Radians)
 RMS Force = .76931D-03 SwitMx=.10000D-02 MixMth= 2
 Mixed Optimization -- En-DIIS/RFO-DIIS
 Update second derivatives using D2CorX and points    1    2
 DE= -1.82D-03 DEPred=-1.72D-03 R= 1.06D+00
 TightC=F SS=  1.41D+00  RLast= 1.21D-01 DXNew= 5.0454D-01 3.6392D-01
 Trust test= 1.06D+00 RLast= 1.21D-01 DXMaxT set to 3.64D-01
 ITU=  1  0
 Use linear search instead of GDIIS.
     Eigenvalues ---    0.00230   0.01222   0.05179   0.05575   0.05580
     Eigenvalues ---    0.05793   0.11007   0.13629   0.15607   0.16000
     Eigenvalues ---    0.16000   0.17171   0.22079   0.27357   0.33969
     Eigenvalues ---    0.33971   0.35241   0.35317   0.35329   0.39893
     Eigenvalues ---    0.46878
 RFO step:  Lambda=-5.53296298D-05 EMin= 2.30000000D-03
 Quartic linear search produced a step of  0.07177.
 Iteration  1 RMS(Cart)=  0.00420399 RMS(Int)=  0.00001373
 Iteration  2 RMS(Cart)=  0.00001027 RMS(Int)=  0.00001022
 Iteration  3 RMS(Cart)=  0.00000000 RMS(Int)=  0.00001022
 ITry= 1 IFail=0 DXMaxC= 1.45D-02 DCOld= 1.00D+10 DXMaxT= 3.64D-01 DXLimC= 3.00D+00 Rises=F
 ClnCor:  largest displacement from symmetrization is 4.47D-09 for atom     9.
 Variable       Old X    -DE/DX   Delta X   Delta X   Delta X     New X
                                 (Linear)    (Quad)   (Total)
    R1        2.86913  -0.00170  -0.00318  -0.00386  -0.00704   2.86209
    R2        2.70753  -0.00200  -0.00037  -0.00504  -0.00541   2.70212
    R3        2.07023  -0.00002  -0.00026   0.00013  -0.00013   2.07010
    R4        2.07023  -0.00002  -0.00026   0.00013  -0.00013   2.07010
    R5        2.05907   0.00022   0.00055   0.00023   0.00078   2.05984
    R6        2.05907   0.00022   0.00055   0.00023   0.00078   2.05984
    R7        2.06021   0.00023   0.00061   0.00020   0.00081   2.06102
    R8        1.82163  -0.00285  -0.00366  -0.00330  -0.00696   1.81466
    A1        1.89000  -0.00099  -0.00017  -0.00475  -0.00491   1.88509
    A2        1.91909   0.00065   0.00065   0.00444   0.00507   1.92416
    A3        1.91909   0.00065   0.00065   0.00444   0.00507   1.92416
    A4        1.92525   0.00006  -0.00105  -0.00055  -0.00159   1.92366
    A5        1.92525   0.00006  -0.00105  -0.00055  -0.00159   1.92366
    A6        1.88538  -0.00041   0.00100  -0.00290  -0.00194   1.88344
    A7        1.92436   0.00070  -0.00003   0.00484   0.00480   1.92916
    A8        1.92436   0.00070  -0.00003   0.00484   0.00480   1.92916
    A9        1.92207   0.00028  -0.00008   0.00169   0.00160   1.92367
   A10        1.89504  -0.00067   0.00008  -0.00402  -0.00396   1.89108
   A11        1.89872  -0.00053   0.00003  -0.00383  -0.00380   1.89492
   A12        1.89872  -0.00053   0.00003  -0.00383  -0.00380   1.89492
   A13        1.90371  -0.00023   0.00641  -0.00688  -0.00047   1.90323
    D1       -1.04616  -0.00003  -0.00003  -0.00059  -0.00062  -1.04678
    D2        1.04616   0.00003   0.00003   0.00059   0.00062   1.04678
    D3       -3.14159  -0.00000   0.00000  -0.00000  -0.00000   3.14159
    D4        1.05854  -0.00018  -0.00103  -0.00153  -0.00258   1.05596
    D5       -3.13233  -0.00012  -0.00096  -0.00036  -0.00133  -3.13366
    D6       -1.03689  -0.00015  -0.00099  -0.00095  -0.00195  -1.03885
    D7        3.13233   0.00012   0.00096   0.00036   0.00133   3.13366
    D8       -1.05854   0.00018   0.00103   0.00153   0.00258  -1.05596
    D9        1.03689   0.00015   0.00099   0.00095   0.00195   1.03885
   D10       -3.14159   0.00000   0.00000  -0.00000   0.00000  -3.14159
   D11        1.04073  -0.00022  -0.00005  -0.00214  -0.00220   1.03853
   D12       -1.04073   0.00022   0.00005   0.00214   0.00220  -1.03853
         Item               Value     Threshold  Converged?
 Maximum Force            0.002851     0.000450     NO 
 RMS     Force            0.000769     0.000300     NO 
 Maximum Displacement     0.014467     0.001800     NO 
 RMS     Displacement     0.004205     0.001200     NO 
 Predicted change in Energy=-3.626960D-05
 Lowest energy point so far.  Saving SCF results.
 GradGradGradGradGradGradGradGradGradGradGradGradGradGradGradGradGradGrad

 Leave Link  103 at Sun May 15 14:15:45 2022, MaxMem=   134217728 cpu:               0.0 elap:               0.3
 (Enter /software/commercial/MERCURY/GAUSSIAN/SSE4/g16/l202.exe)
                          Input orientation:                          
 ---------------------------------------------------------------------
 Center     Atomic      Atomic             Coordinates (Angstroms)
 Number     Number       Type             X           Y           Z
 ---------------------------------------------------------------------
      1          6           0       -0.003116    0.002458    0.004258
      2          6           0        1.511435    0.003504    0.006069
      3          1           0        1.893049    1.024541    0.006982
      4          1           0        1.893049   -0.506282    0.890737
      5          1           0        1.889775   -0.507928   -0.879823
      6          8           0       -0.447036    0.682042    1.181420
      7          1           0       -1.407179    0.690089    1.195359
      8          1           0       -0.381482    0.508659   -0.890510
      9          1           0       -0.381482   -1.025533   -0.004810
 ---------------------------------------------------------------------
                    Distance matrix (angstroms):
                    1          2          3          4          5
     1  C    0.000000
     2  C    1.514552   0.000000
     3  H    2.154090   1.090022   0.000000
     4  H    2.154090   1.090022   1.767609   0.000000
     5  H    2.150611   1.090646   1.770564   1.770564   0.000000
     6  O    1.429898   2.382745   2.640570   2.640570   3.335481
     7  H    1.965439   3.225542   3.523579   3.523579   4.075725
     8  H    1.095450   2.154570   2.499024   3.062097   2.488407
     9  H    1.095450   2.154570   3.062097   2.499024   2.488407
                    6          7          8          9
     6  O    0.000000
     7  H    0.960278   0.000000
     8  H    2.080205   2.331485   0.000000
     9  H    2.080205   2.331485   1.771499   0.000000
 Stoichiometry    C2H6O
 Framework group  CS[SG(C2H2O),X(H4)]
 Deg. of freedom    13
 Full point group                 CS      NOp   2
 RotChk:  IX=2 Diff= 7.56D-04
 Largest Abelian subgroup         CS      NOp   2
 Largest concise Abelian subgroup CS      NOp   2
                         Standard orientation:                         
 ---------------------------------------------------------------------
 Center     Atomic      Atomic             Coordinates (Angstroms)
 Number     Number       Type             X           Y           Z
 ---------------------------------------------------------------------
      1          6           0        0.000000    0.554795   -0.000000
      2          6           0       -1.177188   -0.398147    0.000000
      3          1           0       -1.152985   -1.035682   -0.883805
      4          1           0       -1.152985   -1.035682    0.883805
      5          1           0       -2.114095    0.160166    0.000000
      6          8           0        1.199186   -0.224025   -0.000000
      7          1           0        1.956402    0.366533   -0.000000
      8          1           0       -0.033350    1.198491   -0.885750
      9          1           0       -0.033350    1.198491    0.885750
 ---------------------------------------------------------------------
 Rotational constants (GHZ):          35.2566274           9.3386231           8.1329464
 Leave Link  202 at Sun May 15 14:15:45 2022, MaxMem=   134217728 cpu:               0.0 elap:               0.0
 (Enter /software/commercial/MERCURY/GAUSSIAN/SSE4/g16/l301.exe)
 Standard basis: Aug-CC-pVTZ (5D, 7F)
 Ernie: Thresh=  0.10000D-02 Tol=  0.10000D-05 Strict=F.
 Ernie:  9 primitive shells out of 156 were deleted.
 There are   197 symmetry adapted cartesian basis functions of A'  symmetry.
 There are   118 symmetry adapted cartesian basis functions of A"  symmetry.
 There are   168 symmetry adapted basis functions of A'  symmetry.
 There are   108 symmetry adapted basis functions of A"  symmetry.
   276 basis functions,   378 primitive gaussians,   315 cartesian basis functions
    13 alpha electrons       13 beta electrons
       nuclear repulsion energy        81.7361425897 Hartrees.
 IExCor=  402 DFT=T Ex+Corr=B3LYP ExCW=0 ScaHFX=  0.200000
 ScaDFX=  0.800000  0.720000  1.000000  0.810000 ScalE2=  1.000000  1.000000
 IRadAn=      5 IRanWt=     -1 IRanGd=            0 ICorTp=0 IEmpDi=  4
 NAtoms=    9 NActive=    9 NUniq=    7 SFac= 1.65D+00 NAtFMM=   60 NAOKFM=F Big=F
 Integral buffers will be    131072 words long.
 Raffenetti 2 integral format.
 Two-electron integral symmetry is turned on.
 Leave Link  301 at Sun May 15 14:15:45 2022, MaxMem=   134217728 cpu:               0.1 elap:               0.1
 (Enter /software/commercial/MERCURY/GAUSSIAN/SSE4/g16/l302.exe)
 NPDir=0 NMtPBC=     1 NCelOv=     1 NCel=       1 NClECP=     1 NCelD=      1
         NCelK=      1 NCelE2=     1 NClLst=     1 CellRange=     0.0.
 One-electron integrals computed using PRISM.
 One-electron integral symmetry used in STVInt
 NBasis=   276 RedAO= T EigKep=  1.93D-05  NBF=   168   108
 NBsUse=   276 1.00D-06 EigRej= -1.00D+00 NBFU=   168   108
 Precomputing XC quadrature grid using
 IXCGrd= 4 IRadAn=           5 IRanWt=          -1 IRanGd=           0 AccXCQ= 0.00D+00.
 Generated NRdTot=       0 NPtTot=           0 NUsed=           0 NTot=          32
 NSgBfM=   315   315   315   315   315 MxSgAt=     9 MxSgA2=     9.
 Leave Link  302 at Sun May 15 14:15:45 2022, MaxMem=   134217728 cpu:               0.3 elap:               0.3
 (Enter /software/commercial/MERCURY/GAUSSIAN/SSE4/g16/l303.exe)
 DipDrv:  MaxL=1.
 Leave Link  303 at Sun May 15 14:15:46 2022, MaxMem=   134217728 cpu:               0.1 elap:               0.1
 (Enter /software/commercial/MERCURY/GAUSSIAN/SSE4/g16/l401.exe)
 Initial guess from the checkpoint file:  "/home/thomasegg/AlcoholMixtureSpec/Gau-1082573.chk"
 B after Tr=     0.000000   -0.000000    0.000000
         Rot=    1.000000   -0.000000    0.000000    0.000256 Ang=   0.03 deg.
 Guess basis will be translated and rotated to current coordinates.
 JPrj=2 DoOrth=T DoCkMO=T.
 Initial guess orbital symmetries:
       Occupied  (A') (A') (A') (A') (A') (A') (A') (A") (A') (A')
                 (A") (A') (A")
       Virtual   (A') (A') (A') (A") (A') (A") (A') (A') (A') (A")
                 (A') (A") (A') (A') (A') (A') (A") (A") (A') (A')
                 (A") (A') (A') (A") (A') (A') (A") (A') (A') (A")
                 (A') (A") (A') (A') (A") (A") (A') (A") (A') (A')
                 (A") (A') (A') (A') (A') (A") (A') (A") (A') (A")
                 (A') (A") (A') (A') (A') (A') (A") (A') (A") (A')
                 (A") (A') (A') (A") (A") (A') (A') (A') (A") (A")
                 (A') (A") (A') (A") (A') (A") (A') (A') (A') (A')
                 (A") (A') (A") (A') (A") (A') (A") (A') (A') (A")
                 (A') (A") (A') (A") (A') (A") (A') (A') (A") (A")
                 (A') (A') (A") (A") (A') (A') (A') (A") (A') (A')
                 (A") (A') (A") (A') (A") (A') (A') (A") (A") (A')
                 (A') (A") (A') (A') (A") (A') (A') (A') (A") (A')
                 (A") (A") (A") (A') (A') (A") (A') (A') (A") (A')
                 (A") (A') (A') (A') (A") (A") (A') (A') (A") (A")
                 (A') (A') (A') (A') (A') (A") (A") (A') (A') (A")
                 (A') (A') (A') (A') (A") (A') (A") (A') (A") (A')
                 (A") (A") (A') (A') (A") (A") (A') (A') (A") (A")
                 (A') (A") (A') (A') (A") (A') (A') (A") (A') (A")
                 (A') (A") (A") (A") (A') (A') (A") (A') (A') (A")
                 (A') (A") (A') (A') (A") (A") (A') (A') (A') (A')
                 (A") (A') (A") (A') (A') (A') (A") (A') (A') (A")
                 (A") (A') (A") (A') (A') (A") (A') (A") (A") (A')
                 (A') (A") (A') (A") (A') (A") (A') (A') (A") (A')
                 (A') (A") (A') (A') (A') (A") (A') (A") (A") (A')
                 (A") (A') (A") (A") (A') (A') (A") (A') (A') (A')
                 (A') (A') (A')
 The electronic state of the initial guess is 1-A'.
 Leave Link  401 at Sun May 15 14:15:46 2022, MaxMem=   134217728 cpu:               0.3 elap:               0.3
 (Enter /software/commercial/MERCURY/GAUSSIAN/SSE4/g16/l502.exe)
 Integral symmetry usage will be decided dynamically.
 Closed shell SCF:
 Using DIIS extrapolation, IDIIS=  1040.
 NGot=   134217728 LenX=   134013783 LenY=   133914117
 Requested convergence on RMS density matrix=1.00D-08 within 128 cycles.
 Requested convergence on MAX density matrix=1.00D-06.
 Requested convergence on             energy=1.00D-06.
 No special actions if energy rises.
 Fock matrices will be formed incrementally for  20 cycles.

 Cycle   1  Pass 1  IDiag  1:
 FoFJK:  IHMeth= 1 ICntrl=       0 DoSepK=F KAlg= 0 I1Cent=           0 FoldK=F
 IRaf= 990000000 NMat=       1 IRICut=       1 DoRegI=T DoRafI=F ISym2E= 1 IDoP0=0 IntGTp=1.
 FoFCou: FMM=F IPFlag=           0 FMFlag=      100000 FMFlg1=           0
         NFxFlg=           0 DoJE=F BraDBF=F KetDBF=F FulRan=T
         wScrn=  0.000000 ICntrl=         0 IOpCl=  0 I1Cent=           0 NGrid=           0
         NMat0=    1 NMatS0=      1 NMatT0=    0 NMatD0=    1 NMtDS0=    0 NMtDT0=    0
 Petite list used in FoFCou.
 E= -155.110230761267    
 DIIS: error= 2.74D-04 at cycle   1 NSaved=   1.
 NSaved= 1 IEnMin= 1 EnMin= -155.110230761267     IErMin= 1 ErrMin= 2.74D-04
 ErrMax= 2.74D-04  0.00D+00 EMaxC= 1.00D-01 BMatC= 2.33D-05 BMatP= 2.33D-05
 IDIUse=3 WtCom= 9.97D-01 WtEn= 2.74D-03
 Coeff-Com:  0.100D+01
 Coeff-En:   0.100D+01
 Coeff:      0.100D+01
 Gap=     0.273 Goal=   None    Shift=    0.000
 RMSDP=3.54D-05 MaxDP=2.47D-03              OVMax= 1.30D-03

 Cycle   2  Pass 1  IDiag  1:
 RMSU=  3.53D-05    CP:  1.00D+00
 E= -155.110246303634     Delta-E=       -0.000015542367 Rises=F Damp=F
 DIIS: error= 5.96D-05 at cycle   2 NSaved=   2.
 NSaved= 2 IEnMin= 2 EnMin= -155.110246303634     IErMin= 2 ErrMin= 5.96D-05
 ErrMax= 5.96D-05  0.00D+00 EMaxC= 1.00D-01 BMatC= 1.27D-06 BMatP= 2.33D-05
 IDIUse=1 WtCom= 1.00D+00 WtEn= 0.00D+00
 Coeff-Com:  0.765D-01 0.924D+00
 Coeff:      0.765D-01 0.924D+00
 Gap=     0.266 Goal=   None    Shift=    0.000
 RMSDP=5.00D-06 MaxDP=1.89D-04 DE=-1.55D-05 OVMax= 5.39D-04

 Cycle   3  Pass 1  IDiag  1:
 RMSU=  4.98D-06    CP:  1.00D+00  1.00D+00
 E= -155.110245986493     Delta-E=        0.000000317141 Rises=F Damp=F
 DIIS: error= 6.76D-05 at cycle   3 NSaved=   3.
 NSaved= 3 IEnMin= 2 EnMin= -155.110246303634     IErMin= 2 ErrMin= 5.96D-05
 ErrMax= 6.76D-05  0.00D+00 EMaxC= 1.00D-01 BMatC= 1.83D-06 BMatP= 1.27D-06
 IDIUse=1 WtCom= 1.00D+00 WtEn= 0.00D+00
 Coeff-Com: -0.805D-03 0.548D+00 0.453D+00
 Coeff:     -0.805D-03 0.548D+00 0.453D+00
 Gap=     0.266 Goal=   None    Shift=    0.000
 RMSDP=2.83D-06 MaxDP=1.04D-04 DE= 3.17D-07 OVMax= 3.18D-04

 Cycle   4  Pass 1  IDiag  1:
 RMSU=  1.36D-06    CP:  1.00D+00  1.01D+00  5.03D-01
 E= -155.110247228340     Delta-E=       -0.000001241847 Rises=F Damp=F
 DIIS: error= 1.14D-05 at cycle   4 NSaved=   4.
 NSaved= 4 IEnMin= 4 EnMin= -155.110247228340     IErMin= 4 ErrMin= 1.14D-05
 ErrMax= 1.14D-05  0.00D+00 EMaxC= 1.00D-01 BMatC= 5.37D-08 BMatP= 1.27D-06
 IDIUse=1 WtCom= 1.00D+00 WtEn= 0.00D+00
 Coeff-Com: -0.624D-02 0.185D+00 0.214D+00 0.608D+00
 Coeff:     -0.624D-02 0.185D+00 0.214D+00 0.608D+00
 Gap=     0.266 Goal=   None    Shift=    0.000
 RMSDP=5.24D-07 MaxDP=2.74D-05 DE=-1.24D-06 OVMax= 4.88D-05

 Cycle   5  Pass 1  IDiag  1:
 RMSU=  3.64D-07    CP:  1.00D+00  1.01D+00  5.36D-01  7.57D-01
 E= -155.110247263143     Delta-E=       -0.000000034803 Rises=F Damp=F
 DIIS: error= 3.08D-06 at cycle   5 NSaved=   5.
 NSaved= 5 IEnMin= 5 EnMin= -155.110247263143     IErMin= 5 ErrMin= 3.08D-06
 ErrMax= 3.08D-06  0.00D+00 EMaxC= 1.00D-01 BMatC= 2.53D-09 BMatP= 5.37D-08
 IDIUse=1 WtCom= 1.00D+00 WtEn= 0.00D+00
 Coeff-Com: -0.258D-02 0.501D-01 0.704D-01 0.262D+00 0.620D+00
 Coeff:     -0.258D-02 0.501D-01 0.704D-01 0.262D+00 0.620D+00
 Gap=     0.266 Goal=   None    Shift=    0.000
 RMSDP=1.24D-07 MaxDP=5.87D-06 DE=-3.48D-08 OVMax= 1.48D-05

 Cycle   6  Pass 1  IDiag  1:
 RMSU=  1.01D-07    CP:  1.00D+00  1.01D+00  5.43D-01  7.77D-01  8.50D-01
 E= -155.110247265251     Delta-E=       -0.000000002108 Rises=F Damp=F
 DIIS: error= 8.96D-07 at cycle   6 NSaved=   6.
 NSaved= 6 IEnMin= 6 EnMin= -155.110247265251     IErMin= 6 ErrMin= 8.96D-07
 ErrMax= 8.96D-07  0.00D+00 EMaxC= 1.00D-01 BMatC= 2.09D-10 BMatP= 2.53D-09
 IDIUse=1 WtCom= 1.00D+00 WtEn= 0.00D+00
 Coeff-Com: -0.218D-03-0.303D-02 0.244D-02 0.292D-01 0.251D+00 0.721D+00
 Coeff:     -0.218D-03-0.303D-02 0.244D-02 0.292D-01 0.251D+00 0.721D+00
 Gap=     0.266 Goal=   None    Shift=    0.000
[...]
     28 -0.270602D-02  0.148813D-02 -0.723910D-02  0.599676D-02  0.193668D-03
     29  0.110660D-02 -0.678319D-02  0.481522D-02  0.306103D-03 -0.549699D-02
     30  0.649544D-02 -0.264753D-02 -0.121194D-02 -0.525051D-02  0.575028D-02
     31  0.681772D-02  0.000000D+00  0.000000D+00  0.239518D-02 -0.239518D-02
     32 -0.386345D-02 -0.112500D-02  0.574485D-03 -0.228647D-03  0.174822D-02
     33 -0.296969D-02  0.112500D-02 -0.574485D-03 -0.174822D-02  0.228647D-03
               21            22            23            24            25 
     21  0.171888D+00
     22  0.596421D-03  0.166722D-01
     23 -0.596422D-03  0.667348D-02  0.166722D-01
     24  0.000000D+00  0.630148D-02  0.630148D-02  0.161285D-01
     25  0.179766D-02  0.283637D-02 -0.781222D-02 -0.770438D-02  0.163900D-01
     26  0.604815D-03 -0.716238D-02  0.218653D-02 -0.770438D-02  0.574144D-02
     27  0.120124D-02 -0.753439D-02 -0.818423D-02  0.212263D-02  0.584928D-02
     28 -0.604815D-03  0.218653D-02 -0.716238D-02 -0.770438D-02  0.286094D-02
     29 -0.179766D-02 -0.781222D-02  0.283637D-02 -0.770438D-02 -0.778765D-02
     30 -0.120124D-02 -0.818423D-02 -0.753439D-02  0.212263D-02 -0.767981D-02
     31  0.000000D+00 -0.427834D-02 -0.427834D-02 -0.286402D-02  0.117140D-02
     32 -0.266107D-02  0.165578D-02  0.179431D-02  0.751857D-03 -0.235584D-03
     33  0.266107D-02  0.179431D-02  0.165578D-02  0.751857D-03 -0.616546D-03
               26            27            28            29            30 
     26  0.150904D-01
     27  0.519944D-02  0.155063D-01
     28 -0.648797D-02 -0.702997D-02  0.150904D-01
     29  0.286094D-02 -0.767981D-02  0.574144D-02  0.163900D-01
     30 -0.702997D-02  0.262705D-02  0.519944D-02  0.584928D-02  0.155063D-01
     31  0.117140D-02  0.258573D-02  0.117140D-02  0.117140D-02  0.258573D-02
     32 -0.970560D-04 -0.113951D-02 -0.755074D-03 -0.616546D-03 -0.165900D-02
     33 -0.755074D-03 -0.165900D-02 -0.970559D-04 -0.235584D-03 -0.113951D-02
               31            32            33 
     31  0.176426D-01
     32 -0.736265D-02  0.248117D-01
     33 -0.736265D-02 -0.152913D-01  0.248117D-01
 Leave Link  716 at Sun May 15 14:50:06 2022, MaxMem=   134217728 cpu:               0.1 elap:               0.1
 (Enter /software/commercial/MERCURY/GAUSSIAN/SSE4/g16/l103.exe)

 GradGradGradGradGradGradGradGradGradGradGradGradGradGradGradGradGradGrad
 Berny optimization.
 Red2BG is reusing G-inverse.
 Internal  Forces:  Max     0.000205900 RMS     0.000047135
 Search for a local minimum.
 Step number   1 out of a maximum of    2
 All quantities printed in internal units (Hartrees-Bohrs-Radians)
 Second derivative matrix not updated -- analytic derivatives used.
 ITU=  0
     Eigenvalues ---    0.00199   0.00281   0.04358   0.04431   0.04902
     Eigenvalues ---    0.06268   0.09951   0.11937   0.12278   0.13243
     Eigenvalues ---    0.15752   0.16431   0.24115   0.30019   0.31329
     Eigenvalues ---    0.31342   0.33424   0.33499   0.34347   0.36900
     Eigenvalues ---    0.52761
 Angle between quadratic step and forces=  43.78 degrees.
 Linear search not attempted -- first point.
 Iteration  1 RMS(Cart)=  0.00018269 RMS(Int)=  0.00000005
 Iteration  2 RMS(Cart)=  0.00000005 RMS(Int)=  0.00000001
 ITry= 1 IFail=0 DXMaxC= 4.22D-04 DCOld= 1.00D+10 DXMaxT= 3.00D-01 DXLimC= 3.00D+00 Rises=F
 ClnCor:  largest displacement from symmetrization is 6.30D-09 for atom     4.
 Variable       Old X    -DE/DX   Delta X   Delta X   Delta X     New X
                                 (Linear)    (Quad)   (Total)
    R1        2.86141  -0.00003   0.00000  -0.00016  -0.00016   2.86125
    R2        2.70272  -0.00008   0.00000  -0.00027  -0.00027   2.70245
    R3        2.07044   0.00005   0.00000   0.00019   0.00019   2.07063
    R4        2.07044   0.00005   0.00000   0.00019   0.00019   2.07063
    R5        2.05991   0.00003   0.00000   0.00011   0.00011   2.06002
    R6        2.05991   0.00003   0.00000   0.00011   0.00011   2.06002
    R7        2.06140  -0.00002   0.00000  -0.00005  -0.00005   2.06135
    R8        1.81573   0.00021   0.00000   0.00041   0.00041   1.81614
    A1        1.88699  -0.00004   0.00000  -0.00001  -0.00001   1.88698
    A2        1.92358   0.00001   0.00000  -0.00003  -0.00003   1.92354
    A3        1.92358   0.00001   0.00000  -0.00003  -0.00003   1.92354
    A4        1.92422   0.00002   0.00000   0.00023   0.00023   1.92445
    A5        1.92422   0.00002   0.00000   0.00023   0.00023   1.92445
    A6        1.88157  -0.00002   0.00000  -0.00039  -0.00039   1.88118
    A7        1.92942   0.00003   0.00000   0.00027   0.00027   1.92969
    A8        1.92942   0.00003   0.00000   0.00027   0.00027   1.92969
    A9        1.92640   0.00000   0.00000   0.00008   0.00008   1.92648
   A10        1.89007  -0.00003   0.00000  -0.00018  -0.00018   1.88989
   A11        1.89375  -0.00002   0.00000  -0.00023  -0.00023   1.89352
   A12        1.89375  -0.00002   0.00000  -0.00023  -0.00023   1.89352
   A13        1.90523  -0.00009   0.00000  -0.00047  -0.00047   1.90476
    D1       -1.04631  -0.00000   0.00000  -0.00006  -0.00006  -1.04638
    D2        1.04631   0.00000   0.00000   0.00006   0.00006   1.04638
    D3       -3.14159   0.00000   0.00000   0.00000  -0.00000   3.14159
    D4        1.05795   0.00000   0.00000   0.00020   0.00020   1.05815
    D5       -3.13261   0.00001   0.00000   0.00032   0.00032  -3.13228
    D6       -1.03733   0.00001   0.00000   0.00026   0.00026  -1.03707
    D7        3.13261  -0.00001   0.00000  -0.00032  -0.00032   3.13228
    D8       -1.05795  -0.00000   0.00000  -0.00020  -0.00020  -1.05815
    D9        1.03733  -0.00001   0.00000  -0.00026  -0.00026   1.03707
   D10        3.14159  -0.00000   0.00000   0.00000   0.00000   3.14159
   D11        1.03773   0.00000   0.00000  -0.00009  -0.00009   1.03764
   D12       -1.03773  -0.00000   0.00000   0.00009   0.00009  -1.03764
         Item               Value     Threshold  Converged?
 Maximum Force            0.000206     0.000450     YES
 RMS     Force            0.000047     0.000300     YES
 Maximum Displacement     0.000422     0.001800     YES
 RMS     Displacement     0.000183     0.001200     YES
 Predicted change in Energy=-1.231274D-07
 Optimization completed.
    -- Stationary point found.
                           ----------------------------
                           !   Optimized Parameters   !
                           ! (Angstroms and Degrees)  !
 --------------------------                            --------------------------
 ! Name  Definition              Value          Derivative Info.                !
 --------------------------------------------------------------------------------
 ! R1    R(1,2)                  1.5142         -DE/DX =    0.0                 !
 ! R2    R(1,6)                  1.4302         -DE/DX =   -0.0001              !
 ! R3    R(1,8)                  1.0956         -DE/DX =    0.0                 !
 ! R4    R(1,9)                  1.0956         -DE/DX =    0.0                 !
 ! R5    R(2,3)                  1.0901         -DE/DX =    0.0                 !
 ! R6    R(2,4)                  1.0901         -DE/DX =    0.0                 !
 ! R7    R(2,5)                  1.0908         -DE/DX =    0.0                 !
 ! R8    R(6,7)                  0.9608         -DE/DX =    0.0002              !
 ! A1    A(2,1,6)              108.1165         -DE/DX =    0.0                 !
 ! A2    A(2,1,8)              110.2129         -DE/DX =    0.0                 !
 ! A3    A(2,1,9)              110.2129         -DE/DX =    0.0                 !
 ! A4    A(6,1,8)              110.2497         -DE/DX =    0.0                 !
 ! A5    A(6,1,9)              110.2497         -DE/DX =    0.0                 !
 ! A6    A(8,1,9)              107.8061         -DE/DX =    0.0                 !
 ! A7    A(1,2,3)              110.5474         -DE/DX =    0.0                 !
 ! A8    A(1,2,4)              110.5474         -DE/DX =    0.0                 !
 ! A9    A(1,2,5)              110.3748         -DE/DX =    0.0                 !
 ! A10   A(3,2,4)              108.2928         -DE/DX =    0.0                 !
 ! A11   A(3,2,5)              108.5041         -DE/DX =    0.0                 !
 ! A12   A(4,2,5)              108.5041         -DE/DX =    0.0                 !
 ! A13   A(1,6,7)              109.1614         -DE/DX =   -0.0001              !
 ! D1    D(6,1,2,3)            -59.9493         -DE/DX =    0.0                 !
 ! D2    D(6,1,2,4)             59.9493         -DE/DX =    0.0                 !
 ! D3    D(6,1,2,5)            180.0            -DE/DX =    0.0                 !
 ! D4    D(8,1,2,3)             60.6161         -DE/DX =    0.0                 !
 ! D5    D(8,1,2,4)           -179.4852         -DE/DX =    0.0                 !
 ! D6    D(8,1,2,5)            -59.4345         -DE/DX =    0.0                 !
 ! D7    D(9,1,2,3)            179.4852         -DE/DX =    0.0                 !
 ! D8    D(9,1,2,4)            -60.6161         -DE/DX =    0.0                 !
 ! D9    D(9,1,2,5)             59.4345         -DE/DX =    0.0                 !
 ! D10   D(2,1,6,7)            180.0            -DE/DX =    0.0                 !
 ! D11   D(8,1,6,7)             59.4575         -DE/DX =    0.0                 !
 ! D12   D(9,1,6,7)            -59.4575         -DE/DX =    0.0                 !
 --------------------------------------------------------------------------------
 GradGradGradGradGradGradGradGradGradGradGradGradGradGradGradGradGradGrad

 Leave Link  103 at Sun May 15 14:50:06 2022, MaxMem=   134217728 cpu:               0.0 elap:               0.2
 (Enter /software/commercial/MERCURY/GAUSSIAN/SSE4/g16/l9999.exe)

 ----------------------------------------------------------------------

 Electric dipole moment (input orientation):
 (Debye = 10**-18 statcoulomb cm , SI units = C m)
                  (au)            (Debye)         (10**-30 SI)
   Tot        0.621612D+00      0.157998D+01      0.527025D+01
   x         -0.341623D+00     -0.868319D+00     -0.289640D+01
   y         -0.259646D+00     -0.659955D+00     -0.220137D+01
   z         -0.449754D+00     -0.114316D+01     -0.381318D+01

 Dipole polarizability, Alpha (input orientation).
 (esu units = cm**3 , SI units = C**2 m**2 J**-1)
 Alpha(0;0):
               (au)            (10**-24 esu)      (10**-40 SI)
   iso        0.340354D+02      0.504352D+01      0.561168D+01
   aniso      0.587967D+01      0.871278D+00      0.969427D+00
   xx         0.368238D+02      0.545672D+01      0.607142D+01
   yx        -0.878280D+00     -0.130148D+00     -0.144809D+00
   yy         0.318339D+02      0.471730D+01      0.524870D+01
   zx        -0.152134D+01     -0.225439D+00     -0.250835D+00
   zy         0.139805D+01      0.207169D+00      0.230507D+00
   zz         0.334485D+02      0.495655D+01      0.551491D+01

 ----------------------------------------------------------------------

 Dipole orientation:
     6         -0.01042418         -0.00168340         -0.00584910
     6          2.34882430          0.37931140         -1.57952664
     1          2.68668751         -1.25734900         -2.78386277
     1          2.15434008          2.03912606         -2.78386277
     1          3.98974438          0.64430342         -0.36029621
     8         -2.09799226         -0.33880456         -1.68902493
     1         -3.61280191         -0.58343102         -0.71825625
     1          0.20290039         -1.66187047          1.21276118
     1         -0.33052196          1.64126088          1.21276118

 Electric dipole moment (dipole orientation):
 (Debye = 10**-18 statcoulomb cm , SI units = C m)
                  (au)            (Debye)         (10**-30 SI)
   Tot        0.621612D+00      0.157998D+01      0.527025D+01
   x          0.000000D+00      0.000000D+00      0.000000D+00
   y          0.000000D+00      0.000000D+00      0.000000D+00
   z          0.621612D+00      0.157998D+01      0.527025D+01

 Dipole polarizability, Alpha (dipole orientation).
 (esu units = cm**3 , SI units = C**2 m**2 J**-1)
 Alpha(0;0):
               (au)            (10**-24 esu)      (10**-40 SI)
   iso        0.340354D+02      0.504352D+01      0.561168D+01
   aniso      0.587967D+01      0.871278D+00      0.969427D+00
   xx         0.374926D+02      0.555583D+01      0.618169D+01
   yx         0.104416D+01      0.154729D+00      0.172159D+00
   yy         0.311954D+02      0.462268D+01      0.514343D+01
   zx        -0.477473D+00     -0.707542D-01     -0.787247D-01
   zy        -0.771071D-01     -0.114261D-01     -0.127132D-01
   zz         0.334182D+02      0.495206D+01      0.550991D+01

 ----------------------------------------------------------------------
 Unable to Open any file for archive entry.
 1\1\GINC-SKYSTD01\Freq\RB3LYP\Aug-CC-pVTZ\C2H6O1\THOMASEGG\15-May-2022
 \0\\#P Geom=AllCheck Guess=TCheck SCRF=Check GenChk RB3LYP/Aug-CC-pVTZ
  Freq\\Ethanol\\0,1\C,-0.0029671587,0.0028282123,0.0048989742\C,1.5112
 260298,0.0031811998,0.0055103849\H,1.8935792604,1.0239806191,0.0066004
 777\H,1.8935792763,-0.5063316607,0.8900607087\H,1.8914911813,-0.507999
 7763,-0.8799471645\O,-0.4483265287,0.682343593,1.1819420396\H,-1.40901
 87312,0.6908804092,1.1967293606\H,-0.3812751594,0.5080351986,-0.890678
 0912\H,-0.3812751434,-1.0253671103,-0.0054339642\\Version=ES64L-G16Rev
 C.01\State=1-A'\HF=-155.1102504\RMSD=1.824e-09\RMSF=7.929e-05\ZeroPoin
 t=0.0795283\Thermal=0.0838816\ETot=-155.0263688\HTot=-155.0254246\GTot
 =-155.0561806\Dipole=-0.3416232,-0.2596464,-0.4497543\DipoleDeriv=0.45
 55581,-0.1144776,-0.1982959,-0.1224677,0.4722694,0.1661872,-0.2121361,
 0.1661872,0.6641946,-0.0691964,0.0251884,0.0436309,-0.0009392,0.094025
 2,0.0001612,-0.0016268,0.0001612,0.0942114,0.001671,-0.0372712,0.00020
 21,-0.0873768,-0.107583,0.0065507,-0.0155477,0.003116,0.0716807,0.0016
 71,0.0188127,-0.0321756,0.0302291,0.0226686,0.078328,-0.0834425,0.0817
 627,-0.058571,0.0184112,0.0219218,0.0379726,0.0393338,0.026583,-0.0854
 073,0.0681331,-0.0854073,-0.0720517,-0.4700247,0.1420334,0.2460275,0.1
 578642,-0.6046297,-0.1546224,0.2734493,-0.1546224,-0.783199,0.135233,-
 0.0168238,-0.0291419,-0.0203866,0.3090507,-0.0360484,-0.0353132,-0.036
 0484,0.2674194,-0.0366616,0.0397414,-0.0684211,0.0724802,-0.0178385,0.
 0882048,-0.0375209,0.0386833,-0.1801957,-0.0366616,-0.0791251,0.000201
 4,-0.068737,-0.1945456,-0.0633538,0.0440048,-0.0138323,-0.0034887\Pola
 r=36.8237918,-0.8782802,31.8338933,-1.5213396,1.3980467,33.4484597\Qua
 drupole=2.2158085,-0.8505812,-1.3652273,-0.2184664,-0.3784232,-0.44563
 01\PG=CS [SG(C2H2O1),X(H4)]\NImag=0\\0.50853633,0.02554430,0.55638388,
 0.04424734,-0.04935836,0.49938124,-0.20018111,-0.00374075,-0.00647965,
 0.47760900,-0.01123598,-0.08089064,0.00295207,-0.00044338,0.56964275,-
 0.01946274,0.00295207,-0.07748137,-0.00076800,0.00274901,0.57281751,-0
 .01460984,-0.03554206,-0.00044324,-0.07654775,-0.08125633,0.00008288,0
 .08515161,0.00002904,-0.00016521,-0.00061724,-0.08394150,-0.27925695,0
 .00120825,0.09271394,0.30213411,0.00003682,-0.00122594,-0.00108948,-0.
 00076205,0.00117335,-0.04767098,0.00125686,-0.00067111,0.04606922,-0.0
 1460984,0.01738918,-0.03100083,-0.07654775,0.04070449,-0.07032597,0.00
 348861,-0.00441196,0.00978706,0.08515161,0.00001736,-0.00006018,-0.001
 16529,0.04131553,-0.10661178,0.10086497,0.01068175,-0.01353246,0.02524
 475,-0.04527374,0.11068102,0.00004356,-0.00055660,-0.00119451,-0.07307
 383,0.10089987,-0.22031615,0.00107335,-0.00048037,0.00076740,0.0809181
 3,-0.11122311,0.23752231,-0.00508350,0.01615134,0.02797702,-0.07887657
 ,0.04084032,0.07074280,0.00375544,-0.00422191,-0.01014981,0.00375544,-
 0.00667848,-0.00873162,0.08432879,-0.00091111,-0.00192523,0.00096473,0
 .04231845,-0.10355811,-0.09981299,0.01135241,-0.01294039,-0.02466595,-
 0.00676959,0.00771418,0.01242603,-0.04664842,0.10904585,-0.00157821,0.
 00096473,-0.00081109,0.07330317,-0.09981299,-0.21882944,-0.00126184,0.
 00049933,0.00064641,0.00920012,-0.01273924,-0.02000817,-0.08080348,0.1
 1065740,0.23684110,-0.09864870,0.02356176,0.04081320,-0.01808482,0.024
 09110,0.04173014,0.00326585,-0.00015827,0.00005062,0.00326585,0.000122
 98,-0.00011175,-0.00921537,0.00021321,0.00036931,0.62536404,0.00237335
 ,-0.09740905,-0.06144606,0.00496785,0.00043499,-0.00553694,0.00109967,
 0.00105129,0.00076336,-0.00104932,-0.00012183,0.00021545,0.00001935,0.
 00083853,0.00028575,-0.03007436,0.11336485,0.00411107,-0.06144607,-0.1
 6837145,0.00860522,-0.00553694,-0.00595947,-0.00057671,0.00089285,0.00
 044337,0.00066392,0.00008595,0.00161649,0.00003352,0.00028575,0.001168
 54,-0.05209422,0.12068660,0.25274254,-0.01110463,-0.00350812,-0.006076
 68,0.00000512,0.00239289,0.00414491,0.00054076,0.00011748,-0.00015204,
 0.00054076,-0.00019041,0.00002571,-0.00077478,-0.00014213,-0.00024620,
 -0.51729329,0.01105767,0.01915388,0.52600675,0.02228508,-0.00247252,-0
 .00092914,0.00046860,-0.00203686,-0.00322049,-0.00006967,0.00020311,-0
 .00008469,-0.00025141,-0.00001203,-0.00000102,0.00107354,0.00063488,-0
 .00018153,-0.01507610,-0.01195100,-0.01752553,-0.00832642,0.01486968,0
 .03860177,-0.00092914,-0.00354556,0.00081169,-0.00322049,-0.00575612,-
 0.00033054,0.00012321,-0.00006152,-0.00022562,-0.00020892,0.00015362,0
 .00185957,-0.00018153,0.00042523,-0.02611450,-0.01752553,-0.03219076,-
 0.01442288,0.02170549,0.03993678,-0.08214936,0.03938823,-0.06876216,-0
 .01368806,0.01781630,-0.02771416,0.00180306,-0.00055624,0.00009408,-0.
 00684775,-0.00035461,0.00029111,0.00105528,0.00013042,0.00060276,0.005
 67322,-0.00265914,0.01493686,0.00103966,-0.00073617,0.00030534,0.08748
 953,0.04195109,-0.11430339,0.09825561,-0.00073896,0.00059985,-0.000243
 47,0.00033686,0.00091460,-0.00065939,-0.00009098,0.00133101,-0.0007654
 8,0.00040722,-0.00000058,-0.00001660,-0.00496445,0.00996010,-0.0227528
 1,-0.00105815,0.00073990,0.00090352,-0.04654470,0.11584810,-0.06821676
 ,0.09498784,-0.19587101,-0.00066438,0.00041774,0.00213648,-0.00009034,
 -0.00034010,-0.00006594,0.00073665,-0.00002503,0.00122243,-0.00085373,
 0.00023260,0.00037944,-0.00022907,0.00039744,-0.03778863,-0.00100686,-
 0.00025371,0.00016164,0.07163217,-0.09883502,0.22901728,-0.08214936,-0
 .07924387,-0.00027500,-0.01368805,-0.03290942,0.00157016,-0.00684775,0
 .00042942,-0.00016152,0.00180306,0.00035962,-0.00043465,0.00105528,0.0
 0045677,0.00041435,0.00567322,0.01426493,0.00516647,0.00103966,0.00063
 255,-0.00048483,0.00562442,0.01070208,-0.00130768,0.08748953,-0.080053
 13,-0.25915766,0.01134370,-0.00020583,0.00167676,0.00103960,0.00068343
 ,0.00159191,0.00012562,-0.00024668,0.00061207,-0.00051479,-0.00094295,
 0.00019088,0.00034315,0.00228413,-0.01616789,-0.01468981,-0.00034280,0
 .00002484,-0.00066662,-0.00648408,-0.01508960,0.00341823,0.08530792,0.
 28631868,0.00221715,0.01461147,-0.05101675,-0.00097217,0.00037838,0.00
 105956,0.00028958,-0.00061483,0.00096153,0.00024654,-0.00083408,0.0002
 3659,-0.00007426,0.00009396,0.00018799,-0.00441373,-0.03784007,-0.0116
 6063,-0.00141984,0.00049062,0.00087670,0.00861401,0.02411364,0.0008083
 1,-0.00448730,-0.00039909,0.05854671\\0.00000651,-0.00006643,-0.000115
 06,0.00011629,0.00000753,0.00001305,-0.00003870,-0.00002013,0.00000415
 ,-0.00003870,0.00001366,-0.00001535,-0.00000440,-0.00001291,-0.0000223
 7,-0.00028669,0.00000598,0.00001035,0.00020643,0.00002224,0.00003852,0
 .00001963,0.00000497,0.00005493,0.00001963,0.00004509,0.00003177\\\@
 The archive entry for this job was punched.


 THE SOLUTION TO A PROBLEM CHANGES THE PROBLEM.

                                 -- JOHN PEERS
           PAUL DICKSON'S "THE OFFICIAL RULES"
 Job cpu time:       0 days  0 hours 27 minutes 35.3 seconds.
 Elapsed time:       0 days  0 hours 27 minutes 43.0 seconds.
 File lengths (MBytes):  RWF=     64 Int=      0 D2E=      0 Chk=      8 Scr=      2
 Normal termination of Gaussian 16 at Sun May 15 14:50:06 2022.
