 Entering Gaussian System, Link 0=g16
 Initial command:
 /software/commercial/MERCURY/GAUSSIAN/SSE4/g16/l1.exe "/home/thomasegg/AlcoholMixtureSpec/Gau-1083105.inp" -scrdir="/home/thomasegg/AlcoholMixtureSpec/"
 Entering Link 1 = /software/commercial/MERCURY/GAUSSIAN/SSE4/g16/l1.exe PID=   1083106.
  
 Copyright (c) 1988-2019, Gaussian, Inc.  All Rights Reserved.
  
 This is part of the Gaussian(R) 16 program.  It is based on
 the Gaussian(R) 09 system (copyright 2009, Gaussian, Inc.),
 the Gaussian(R) 03 system (copyright 2003, Gaussian, Inc.),
 the Gaussian(R) 98 system (copyright 1998, Gaussian, Inc.),
 the Gaussian(R) 94 system (copyright 1995, Gaussian, Inc.),
 the Gaussian 92(TM) system (copyright 1992, Gaussian, Inc.),
 the Gaussian 90(TM) system (copyright 1990, Gaussian, Inc.),
 the Gaussian 88(TM) system (copyright 1988, Gaussian, Inc.),
 the Gaussian 86(TM) system (copyright 1986, Carnegie Mellon
 University), and the Gaussian 82(TM) system (copyright 1983,
 Carnegie Mellon University). Gaussian is a federally registered
 trademark of Gaussian, Inc.
  
 This software contains proprietary and confidential information,
 including trade secrets, belonging to Gaussian, Inc.
  
 This software is provided under written license and may be
 used, copied, transmitted, or stored only in accord with that
 written license.
  
 The following legend is applicable only to US Government
 contracts under FAR:
  
                    RESTRICTED RIGHTS LEGEND
  
 Use, reproduction and disclosure by the US Government is
 subject to restrictions as set forth in subparagraphs (a)
 and (c) of the Commercial Computer Software - Restricted
 Rights clause in FAR 52.227-19.
  
 Gaussian, Inc.
 340 Quinnipiac St., Bldg. 40, Wallingford CT 06492
  
  
 ---------------------------------------------------------------
 Warning -- This program may not be used in any manner that
 competes with the business of Gaussian, Inc. or will provide
 assistance to any competitor of Gaussian, Inc.  The licensee
 of this program is prohibited from giving any competitor of
 Gaussian, Inc. access to this program.  By using this program,
 the user acknowledges that Gaussian, Inc. is engaged in the
 business of creating and licensing software in the field of
 computational chemistry and represents and warrants to the
 licensee that it is not a competitor of Gaussian, Inc. and that
 it will not use this program in any manner prohibited above.
 ---------------------------------------------------------------
  

 Cite this work as:
 Gaussian 16, Revision C.01,
 M. J. Frisch, G. W. Trucks, H. B. Schlegel, G. E. Scuseria, 
 M. A. Robb, J. R. Cheeseman, G. Scalmani, V. Barone, 
 G. A. Petersson, H. Nakatsuji, X. Li, M. Caricato, A. V. Marenich, 
 J. Bloino, B. G. Janesko, R. Gomperts, B. Mennucci, H. P. Hratchian, 
 J. V. Ortiz, A. F. Izmaylov, J. L. Sonnenberg, D. Williams-Young, 
 F. Ding, F. Lipparini, F. Egidi, J. Goings, B. Peng, A. Petrone, 
 T. Henderson, D. Ranasinghe, V. G. Zakrzewski, J. Gao, N. Rega, 
 G. Zheng, W. Liang, M. Hada, M. Ehara, K. Toyota, R. Fukuda, 
 J. Hasegawa, M. Ishida, T. Nakajima, Y. Honda, O. Kitao, H. Nakai, 
 T. Vreven, K. Throssell, J. A. Montgomery, Jr., J. E. Peralta, 
 F. Ogliaro, M. J. Bearpark, J. J. Heyd, E. N. Brothers, K. N. Kudin, 
 V. N. Staroverov, T. A. Keith, R. Kobayashi, J. Normand, 
 K. Raghavachari, A. P. Rendell, J. C. Burant, S. S. Iyengar, 
 J. Tomasi, M. Cossi, J. M. Millam, M. Klene, C. Adamo, R. Cammi, 
 J. W. Ochterski, R. L. Martin, K. Morokuma, O. Farkas, 
 J. B. Foresman, and D. J. Fox, Gaussian, Inc., Wallingford CT, 2019.
 
 ******************************************
 Gaussian 16:  ES64L-G16RevC.01  3-Jul-2019
                15-May-2022 
 ******************************************
 %Mem=1GB
 -----------------------------
 #p B3LYP/aug-cc-pVTZ OPT FREQ
 -----------------------------
 1/18=20,19=15,26=3,38=1/1,3;
 2/9=110,12=2,17=6,18=5,40=1/2;
 3/5=16,6=1,7=10,11=2,25=1,30=1,71=1,74=-5/1,2,3;
 4//1;
 5/5=2,38=5/2;
 6/7=2,8=2,9=2,10=2,28=1/1;
 7//1,2,3,16;
 1/18=20,19=15,26=3/3(2);
 2/9=110/2;
 99//99;
 2/9=110/2;
 3/5=16,6=1,7=10,11=2,25=1,30=1,71=1,74=-5/1,2,3;
 4/5=5,16=3,69=1/1;
 5/5=2,38=5/2;
 7//1,2,3,16;
 1/18=20,19=15,26=3/3(-5);
 2/9=110/2;
 6/7=2,8=2,9=2,10=2,19=2,28=1/1;
 99/9=1/99;
 Leave Link    1 at Sun May 15 14:11:16 2022, MaxMem=   134217728 cpu:               0.0 elap:               0.1
 (Enter /software/commercial/MERCURY/GAUSSIAN/SSE4/g16/l101.exe)
 --------
 Methanol
 --------
 Symbolic Z-matrix:
 Charge =  0 Multiplicity = 1
 C                     0.03002   0.0132    0. 
 O                     1.46128  -0.05739   0. 
 H                     1.74576   0.89203   0. 
 H                    -0.36213   0.52264   0.88648 
 H                    -0.36213   0.52264  -0.88648 
 H                    -0.35146  -1.00942   0. 
 
 ITRead=  0  0  0  0  0  0
 MicOpt= -1 -1 -1 -1 -1 -1
 NAtoms=      6 NQM=        6 NQMF=       0 NMMI=      0 NMMIF=      0
                NMic=       0 NMicF=      0.
                    Isotopes and Nuclear Properties:
 (Nuclear quadrupole moments (NQMom) in fm**2, nuclear magnetic moments (NMagM)
  in nuclear magnetons)

  Atom         1           2           3           4           5           6
 IAtWgt=          12          16           1           1           1           1
 AtmWgt=  12.0000000  15.9949146   1.0078250   1.0078250   1.0078250   1.0078250
 NucSpn=           0           0           1           1           1           1
 AtZEff=  -0.0000000  -0.0000000  -0.0000000  -0.0000000  -0.0000000  -0.0000000
 NQMom=    0.0000000   0.0000000   0.0000000   0.0000000   0.0000000   0.0000000
 NMagM=    0.0000000   0.0000000   2.7928460   2.7928460   2.7928460   2.7928460
 AtZNuc=   6.0000000   8.0000000   1.0000000   1.0000000   1.0000000   1.0000000
 Leave Link  101 at Sun May 15 14:11:17 2022, MaxMem=   134217728 cpu:               0.1 elap:               0.1
 (Enter /software/commercial/MERCURY/GAUSSIAN/SSE4/g16/l103.exe)

 GradGradGradGradGradGradGradGradGradGradGradGradGradGradGradGradGradGrad
 Berny optimization.
 Initialization pass.
                           ----------------------------
                           !    Initial Parameters    !
                           ! (Angstroms and Degrees)  !
 --------------------------                            --------------------------
 ! Name  Definition              Value          Derivative Info.                !
 --------------------------------------------------------------------------------
 ! R1    R(1,2)                  1.433          estimate D2E/DX2                !
 ! R2    R(1,4)                  1.0951         estimate D2E/DX2                !
 ! R3    R(1,5)                  1.0951         estimate D2E/DX2                !
 ! R4    R(1,6)                  1.0915         estimate D2E/DX2                !
 ! R5    R(2,3)                  0.9911         estimate D2E/DX2                !
 ! A1    A(2,1,4)              112.37           estimate D2E/DX2                !
 ! A2    A(2,1,5)              112.37           estimate D2E/DX2                !
 ! A3    A(2,1,6)              107.6345         estimate D2E/DX2                !
 ! A4    A(4,1,5)              108.0988         estimate D2E/DX2                !
 ! A5    A(4,1,6)              108.1024         estimate D2E/DX2                !
 ! A6    A(5,1,6)              108.1024         estimate D2E/DX2                !
 ! A7    A(1,2,3)              103.8569         estimate D2E/DX2                !
 ! D1    D(4,1,2,3)            -61.0925         estimate D2E/DX2                !
 ! D2    D(5,1,2,3)             61.0925         estimate D2E/DX2                !
 ! D3    D(6,1,2,3)            180.0            estimate D2E/DX2                !
 --------------------------------------------------------------------------------
 Trust Radius=3.00D-01 FncErr=1.00D-07 GrdErr=1.00D-06 EigMax=2.50D+02 EigMin=1.00D-04
 Number of steps in this run=     25 maximum allowed number of steps=    100.
 GradGradGradGradGradGradGradGradGradGradGradGradGradGradGradGradGradGrad

 Leave Link  103 at Sun May 15 14:11:17 2022, MaxMem=   134217728 cpu:               0.0 elap:               0.0
 (Enter /software/commercial/MERCURY/GAUSSIAN/SSE4/g16/l202.exe)
                          Input orientation:                          
 ---------------------------------------------------------------------
 Center     Atomic      Atomic             Coordinates (Angstroms)
 Number     Number       Type             X           Y           Z
 ---------------------------------------------------------------------
      1          6           0        0.030020    0.013195    0.000000
      2          8           0        1.461279   -0.057390    0.000000
      3          1           0        1.745761    0.892028    0.000000
      4          1           0       -0.362129    0.522644    0.886481
      5          1           0       -0.362129    0.522644   -0.886481
      6          1           0       -0.351464   -1.009421    0.000000
 ---------------------------------------------------------------------
                    Distance matrix (angstroms):
                    1          2          3          4          5
     1  C    0.000000
     2  O    1.432998   0.000000
     3  H    1.927723   0.991123   0.000000
     4  H    1.095065   2.108816   2.316353   0.000000
     5  H    1.095065   2.108816   2.316353   1.772962   0.000000
     6  H    1.091455   2.047535   2.830876   1.770081   1.770081
                    6
     6  H    0.000000
 Stoichiometry    CH4O
 Framework group  CS[SG(CH2O),X(H2)]
 Deg. of freedom     8
 Full point group                 CS      NOp   2
 Largest Abelian subgroup         CS      NOp   2
 Largest concise Abelian subgroup CS      NOp   2
                         Standard orientation:                         
 ---------------------------------------------------------------------
 Center     Atomic      Atomic             Coordinates (Angstroms)
 Number     Number       Type             X           Y           Z
 ---------------------------------------------------------------------
      1          6           0       -0.050063    0.665010    0.000000
      2          8           0       -0.050063   -0.767989    0.000000
      3          1           0        0.912215   -1.005360    0.000000
      4          1           0        0.439451    1.081776    0.886481
      5          1           0        0.439451    1.081776   -0.886481
      6          1           0       -1.090229    0.995660    0.000000
 ---------------------------------------------------------------------
 Rotational constants (GHZ):         125.8132956          24.5243738          23.5540739
 Leave Link  202 at Sun May 15 14:11:17 2022, MaxMem=   134217728 cpu:               0.0 elap:               0.0
 (Enter /software/commercial/MERCURY/GAUSSIAN/SSE4/g16/l301.exe)
 Standard basis: Aug-CC-pVTZ (5D, 7F)
 Ernie: Thresh=  0.10000D-02 Tol=  0.10000D-05 Strict=F.
 Ernie:  6 primitive shells out of 104 were deleted.
 There are   135 symmetry adapted cartesian basis functions of A'  symmetry.
 There are    75 symmetry adapted cartesian basis functions of A"  symmetry.
 There are   115 symmetry adapted basis functions of A'  symmetry.
 There are    69 symmetry adapted basis functions of A"  symmetry.
   184 basis functions,   252 primitive gaussians,   210 cartesian basis functions
     9 alpha electrons        9 beta electrons
       nuclear repulsion energy        39.9744490745 Hartrees.
 IExCor=  402 DFT=T Ex+Corr=B3LYP ExCW=0 ScaHFX=  0.200000
 ScaDFX=  0.800000  0.720000  1.000000  0.810000 ScalE2=  1.000000  1.000000
 IRadAn=      5 IRanWt=     -1 IRanGd=            0 ICorTp=0 IEmpDi=  4
 NAtoms=    6 NActive=    6 NUniq=    5 SFac= 1.44D+00 NAtFMM=   60 NAOKFM=F Big=F
 Integral buffers will be    131072 words long.
 Raffenetti 2 integral format.
 Two-electron integral symmetry is turned on.
 Leave Link  301 at Sun May 15 14:11:17 2022, MaxMem=   134217728 cpu:               0.1 elap:               0.1
 (Enter /software/commercial/MERCURY/GAUSSIAN/SSE4/g16/l302.exe)
 NPDir=0 NMtPBC=     1 NCelOv=     1 NCel=       1 NClECP=     1 NCelD=      1
         NCelK=      1 NCelE2=     1 NClLst=     1 CellRange=     0.0.
 One-electron integrals computed using PRISM.
 One-electron integral symmetry used in STVInt
 NBasis=   184 RedAO= T EigKep=  6.50D-05  NBF=   115    69
 NBsUse=   184 1.00D-06 EigRej= -1.00D+00 NBFU=   115    69
 Precomputing XC quadrature grid using
 IXCGrd= 4 IRadAn=           5 IRanWt=          -1 IRanGd=           0 AccXCQ= 0.00D+00.
 Generated NRdTot=       0 NPtTot=           0 NUsed=           0 NTot=          32
 NSgBfM=   210   210   210   210   210 MxSgAt=     6 MxSgA2=     6.
 Leave Link  302 at Sun May 15 14:11:17 2022, MaxMem=   134217728 cpu:               0.2 elap:               0.2
 (Enter /software/commercial/MERCURY/GAUSSIAN/SSE4/g16/l303.exe)
 DipDrv:  MaxL=1.
 Leave Link  303 at Sun May 15 14:11:17 2022, MaxMem=   134217728 cpu:               0.0 elap:               0.0
 (Enter /software/commercial/MERCURY/GAUSSIAN/SSE4/g16/l401.exe)
 ExpMin= 2.53D-02 ExpMax= 1.53D+04 ExpMxC= 5.22D+02 IAcc=3 IRadAn=         5 AccDes= 0.00D+00
 Harris functional with IExCor=  402 and IRadAn=       5 diagonalized for initial guess.
 HarFok:  IExCor=  402 AccDes= 0.00D+00 IRadAn=         5 IDoV= 1 UseB2=F ITyADJ=14
 ICtDFT=  3500011 ScaDFX=  1.000000  1.000000  1.000000  1.000000
 FoFCou: FMM=F IPFlag=           0 FMFlag=      100000 FMFlg1=           0
         NFxFlg=           0 DoJE=T BraDBF=F KetDBF=T FulRan=T
         wScrn=  0.000000 ICntrl=       500 IOpCl=  0 I1Cent=   200000004 NGrid=           0
         NMat0=    1 NMatS0=      1 NMatT0=    0 NMatD0=    1 NMtDS0=    0 NMtDT0=    0
 Petite list used in FoFCou.
 Harris En= -115.804995425236    
 JPrj=0 DoOrth=F DoCkMO=F.
 Initial guess orbital symmetries:
       Occupied  (A') (A') (A') (A') (A') (A") (A') (A') (A")
       Virtual   (A') (A') (A') (A") (A') (A') (A') (A") (A') (A')
                 (A") (A') (A') (A") (A') (A") (A') (A') (A') (A")
                 (A') (A") (A') (A") (A') (A") (A') (A') (A') (A')
                 (A") (A') (A') (A") (A") (A') (A') (A') (A') (A")
                 (A') (A") (A") (A') (A') (A") (A') (A") (A") (A')
                 (A') (A') (A") (A') (A') (A") (A') (A') (A') (A")
                 (A') (A") (A") (A') (A") (A') (A') (A") (A') (A')
                 (A") (A') (A") (A') (A') (A") (A') (A") (A') (A")
                 (A') (A') (A") (A') (A") (A') (A") (A') (A') (A")
                 (A') (A") (A') (A') (A") (A') (A") (A') (A') (A')
                 (A") (A') (A') (A") (A") (A') (A') (A') (A') (A")
                 (A') (A") (A") (A') (A") (A') (A') (A") (A') (A')
                 (A") (A') (A") (A') (A") (A") (A') (A') (A') (A")
                 (A") (A') (A') (A') (A") (A") (A") (A') (A') (A')
                 (A') (A") (A') (A") (A') (A") (A') (A') (A") (A')
                 (A') (A") (A") (A') (A') (A') (A") (A') (A') (A')
                 (A") (A") (A') (A") (A') (A") (A") (A') (A') (A")
                 (A') (A') (A') (A') (A')
 The electronic state of the initial guess is 1-A'.
 Leave Link  401 at Sun May 15 14:11:19 2022, MaxMem=   134217728 cpu:               1.6 elap:               1.6
 (Enter /software/commercial/MERCURY/GAUSSIAN/SSE4/g16/l502.exe)
 Integral symmetry usage will be decided dynamically.
 Closed shell SCF:
 Using DIIS extrapolation, IDIIS=  1040.
 NGot=   134217728 LenX=   134125808 LenY=   134081267
 Requested convergence on RMS density matrix=1.00D-08 within 128 cycles.
 Requested convergence on MAX density matrix=1.00D-06.
 Requested convergence on             energy=1.00D-06.
 No special actions if energy rises.
 Fock matrices will be formed incrementally for  20 cycles.

 Cycle   1  Pass 1  IDiag  1:
 FoFJK:  IHMeth= 1 ICntrl=       0 DoSepK=F KAlg= 0 I1Cent=           0 FoldK=F
 IRaf= 990000000 NMat=       1 IRICut=       1 DoRegI=T DoRafI=F ISym2E= 1 IDoP0=0 IntGTp=1.
 FoFCou: FMM=F IPFlag=           0 FMFlag=      100000 FMFlg1=           0
         NFxFlg=           0 DoJE=F BraDBF=F KetDBF=F FulRan=T
         wScrn=  0.000000 ICntrl=         0 IOpCl=  0 I1Cent=           0 NGrid=           0
         NMat0=    1 NMatS0=      1 NMatT0=    0 NMatD0=    1 NMtDS0=    0 NMtDT0=    0
 Petite list used in FoFCou.
 E= -115.690345988464    
 DIIS: error= 2.04D-02 at cycle   1 NSaved=   1.
 NSaved= 1 IEnMin= 1 EnMin= -115.690345988464     IErMin= 1 ErrMin= 2.04D-02
 ErrMax= 2.04D-02  0.00D+00 EMaxC= 1.00D-01 BMatC= 1.05D-01 BMatP= 1.05D-01
 IDIUse=3 WtCom= 7.96D-01 WtEn= 2.04D-01
 Coeff-Com:  0.100D+01
 Coeff-En:   0.100D+01
 Coeff:      0.100D+01
 Gap=     0.170 Goal=   None    Shift=    0.000
 GapD=    0.170 DampG=1.000 DampE=0.500 DampFc=0.5000 IDamp=-1.
 Damping current iteration by 5.00D-01
 RMSDP=2.25D-03 MaxDP=5.37D-02              OVMax= 1.88D-01

 Cycle   2  Pass 1  IDiag  1:
 RMSU=  1.10D-03    CP:  9.74D-01
 E= -115.715699926279     Delta-E=       -0.025353937815 Rises=F Damp=T
 DIIS: error= 6.60D-03 at cycle   2 NSaved=   2.
 NSaved= 2 IEnMin= 2 EnMin= -115.715699926279     IErMin= 2 ErrMin= 6.60D-03
 ErrMax= 6.60D-03  0.00D+00 EMaxC= 1.00D-01 BMatC= 1.18D-02 BMatP= 1.05D-01
 IDIUse=3 WtCom= 9.34D-01 WtEn= 6.60D-02
 Coeff-Com:  0.197D+00 0.803D+00
 Coeff-En:   0.324D+00 0.676D+00
 Coeff:      0.205D+00 0.795D+00
 Gap=     0.276 Goal=   None    Shift=    0.000
 RMSDP=5.08D-04 MaxDP=1.31D-02 DE=-2.54D-02 OVMax= 1.28D-01

 Cycle   3  Pass 1  IDiag  1:
 RMSU=  4.44D-04    CP:  9.84D-01  7.91D-01
 E= -115.772011441673     Delta-E=       -0.056311515394 Rises=F Damp=F
 DIIS: error= 4.98D-03 at cycle   3 NSaved=   3.
 NSaved= 3 IEnMin= 3 EnMin= -115.772011441673     IErMin= 3 ErrMin= 4.98D-03
 ErrMax= 4.98D-03  0.00D+00 EMaxC= 1.00D-01 BMatC= 4.29D-03 BMatP= 1.18D-02
 IDIUse=3 WtCom= 9.50D-01 WtEn= 4.98D-02
 Coeff-Com:  0.400D-01 0.379D+00 0.581D+00
 Coeff-En:   0.000D+00 0.000D+00 0.100D+01
 Coeff:      0.380D-01 0.360D+00 0.602D+00
 Gap=     0.269 Goal=   None    Shift=    0.000
 RMSDP=2.20D-04 MaxDP=7.11D-03 DE=-5.63D-02 OVMax= 2.05D-02

 Cycle   4  Pass 1  IDiag  1:
 RMSU=  1.94D-04    CP:  9.83D-01  8.31D-01  7.89D-01
 E= -115.774705693721     Delta-E=       -0.002694252048 Rises=F Damp=F
 DIIS: error= 1.63D-03 at cycle   4 NSaved=   4.
 NSaved= 4 IEnMin= 4 EnMin= -115.774705693721     IErMin= 4 ErrMin= 1.63D-03
 ErrMax= 1.63D-03  0.00D+00 EMaxC= 1.00D-01 BMatC= 6.81D-04 BMatP= 4.29D-03
 IDIUse=3 WtCom= 9.84D-01 WtEn= 1.63D-02
 Coeff-Com: -0.464D-02 0.880D-01 0.313D+00 0.603D+00
 Coeff-En:   0.000D+00 0.000D+00 0.118D+00 0.882D+00
 Coeff:     -0.457D-02 0.866D-01 0.310D+00 0.608D+00
 Gap=     0.268 Goal=   None    Shift=    0.000
 RMSDP=7.69D-05 MaxDP=2.75D-03 DE=-2.69D-03 OVMax= 6.84D-03

 Cycle   5  Pass 1  IDiag  1:
 RMSU=  4.39D-05    CP:  9.82D-01  8.47D-01  8.00D-01  6.93D-01
 E= -115.775254486009     Delta-E=       -0.000548792288 Rises=F Damp=F
 DIIS: error= 2.41D-04 at cycle   5 NSaved=   5.
 NSaved= 5 IEnMin= 5 EnMin= -115.775254486009     IErMin= 5 ErrMin= 2.41D-04
 ErrMax= 2.41D-04  0.00D+00 EMaxC= 1.00D-01 BMatC= 1.04D-05 BMatP= 6.81D-04
 IDIUse=3 WtCom= 9.98D-01 WtEn= 2.41D-03
 Coeff-Com: -0.334D-02 0.433D-02 0.604D-01 0.183D+00 0.756D+00
 Coeff-En:   0.000D+00 0.000D+00 0.000D+00 0.000D+00 0.100D+01
 Coeff:     -0.333D-02 0.432D-02 0.602D-01 0.183D+00 0.756D+00
 Gap=     0.268 Goal=   None    Shift=    0.000
 RMSDP=9.55D-06 MaxDP=2.35D-04 DE=-5.49D-04 OVMax= 7.44D-04

 Cycle   6  Pass 1  IDiag  1:
 RMSU=  7.12D-06    CP:  9.82D-01  8.47D-01  8.04D-01  7.16D-01  9.10D-01
 E= -115.775262079243     Delta-E=       -0.000007593234 Rises=F Damp=F
 DIIS: error= 1.49D-05 at cycle   6 NSaved=   6.
 NSaved= 6 IEnMin= 6 EnMin= -115.775262079243     IErMin= 6 ErrMin= 1.49D-05
 ErrMax= 1.49D-05  0.00D+00 EMaxC= 1.00D-01 BMatC= 4.52D-08 BMatP= 1.04D-05
 IDIUse=1 WtCom= 1.00D+00 WtEn= 0.00D+00
 Coeff-Com:  0.235D-03-0.979D-03 0.956D-03 0.329D-02 0.384D-01 0.958D+00
 Coeff:      0.235D-03-0.979D-03 0.956D-03 0.329D-02 0.384D-01 0.958D+00
 Gap=     0.268 Goal=   None    Shift=    0.000
 RMSDP=9.80D-07 MaxDP=2.52D-05 DE=-7.59D-06 OVMax= 8.97D-05

 Cycle   7  Pass 1  IDiag  1:
 RMSU=  6.58D-07    CP:  9.82D-01  8.47D-01  8.04D-01  7.15D-01  9.18D-01
                    CP:  1.05D+00
 E= -115.775262118251     Delta-E=       -0.000000039009 Rises=F Damp=F
 DIIS: error= 3.08D-06 at cycle   7 NSaved=   7.
 NSaved= 7 IEnMin= 7 EnMin= -115.775262118251     IErMin= 7 ErrMin= 3.08D-06
 ErrMax= 3.08D-06  0.00D+00 EMaxC= 1.00D-01 BMatC= 1.18D-09 BMatP= 4.52D-08
 IDIUse=1 WtCom= 1.00D+00 WtEn= 0.00D+00
 Coeff-Com:  0.766D-04-0.226D-03-0.671D-03-0.133D-02-0.300D-02 0.186D+00
 Coeff-Com:  0.819D+00
 Coeff:      0.766D-04-0.226D-03-0.671D-03-0.133D-02-0.300D-02 0.186D+00
 Coeff:      0.819D+00
 Gap=     0.268 Goal=   None    Shift=    0.000
 RMSDP=1.51D-07 MaxDP=2.92D-06 DE=-3.90D-08 OVMax= 1.35D-05

 Cycle   8  Pass 1  IDiag  1:
 RMSU=  1.26D-07    CP:  9.82D-01  8.47D-01  8.04D-01  7.16D-01  9.18D-01
                    CP:  1.06D+00  9.66D-01
 E= -115.775262119417     Delta-E=       -0.000000001166 Rises=F Damp=F
 DIIS: error= 7.22D-07 at cycle   8 NSaved=   8.
 NSaved= 8 IEnMin= 8 EnMin= -115.775262119417     IErMin= 8 ErrMin= 7.22D-07
 ErrMax= 7.22D-07  0.00D+00 EMaxC= 1.00D-01 BMatC= 5.61D-11 BMatP= 1.18D-09
 IDIUse=1 WtCom= 1.00D+00 WtEn= 0.00D+00
 Coeff-Com:  0.135D-05-0.363D-05-0.146D-03-0.214D-03-0.158D-02 0.544D-02
 Coeff-Com:  0.204D+00 0.793D+00
 Coeff:      0.135D-05-0.363D-05-0.146D-03-0.214D-03-0.158D-02 0.544D-02
 Coeff:      0.204D+00 0.793D+00
 Gap=     0.268 Goal=   None    Shift=    0.000
 RMSDP=3.27D-08 MaxDP=7.69D-07 DE=-1.17D-09 OVMax= 2.34D-06

 Cycle   9  Pass 1  IDiag  1:
 RMSU=  2.02D-08    CP:  9.82D-01  8.47D-01  8.04D-01  7.16D-01  9.18D-01
                    CP:  1.06D+00  9.87D-01  9.01D-01
 E= -115.775262119468     Delta-E=       -0.000000000051 Rises=F Damp=F
 DIIS: error= 6.69D-08 at cycle   9 NSaved=   9.
 NSaved= 9 IEnMin= 9 EnMin= -115.775262119468     IErMin= 9 ErrMin= 6.69D-08
 ErrMax= 6.69D-08  0.00D+00 EMaxC= 1.00D-01 BMatC= 9.66D-13 BMatP= 5.61D-11
 IDIUse=1 WtCom= 1.00D+00 WtEn= 0.00D+00
 Coeff-Com: -0.222D-05 0.402D-05-0.212D-04-0.333D-04-0.277D-03-0.402D-02
 Coeff-Com:  0.197D-01 0.149D+00 0.835D+00
 Coeff:     -0.222D-05 0.402D-05-0.212D-04-0.333D-04-0.277D-03-0.402D-02
 Coeff:      0.197D-01 0.149D+00 0.835D+00
 Gap=     0.268 Goal=   None    Shift=    0.000
 RMSDP=5.24D-09 MaxDP=1.99D-07 DE=-5.07D-11 OVMax= 3.97D-07

 SCF Done:  E(RB3LYP) =  -115.775262119     A.U. after    9 cycles
            NFock=  9  Conv=0.52D-08     -V/T= 2.0069
 KE= 1.149774031408D+02 PE=-3.513114968232D+02 EE= 8.058438248845D+01
 Leave Link  502 at Sun May 15 14:12:04 2022, MaxMem=   134217728 cpu:              45.1 elap:              45.3
 (Enter /software/commercial/MERCURY/GAUSSIAN/SSE4/g16/l601.exe)
 Copying SCF densities to generalized density rwf, IOpCl= 0 IROHF=0.

 **********************************************************************

            Population analysis using the SCF Density.

 **********************************************************************

 Orbital symmetries:
       Occupied  (A') (A') (A') (A') (A') (A") (A') (A') (A")
       Virtual   (A') (A') (A") (A') (A') (A') (A') (A") (A') (A')
                 (A") (A') (A") (A') (A') (A") (A') (A') (A") (A')
                 (A") (A') (A") (A') (A') (A') (A") (A') (A') (A')
                 (A") (A') (A") (A') (A") (A') (A') (A') (A') (A")
                 (A') (A") (A") (A') (A') (A") (A") (A') (A") (A')
                 (A') (A") (A') (A') (A') (A') (A") (A') (A') (A")
                 (A") (A') (A") (A') (A") (A') (A") (A') (A') (A')
                 (A") (A') (A") (A') (A') (A") (A') (A") (A') (A")
                 (A') (A') (A") (A') (A") (A') (A") (A') (A') (A")
                 (A') (A") (A') (A') (A") (A') (A") (A') (A') (A')
                 (A") (A') (A') (A") (A") (A') (A') (A') (A') (A")
                 (A') (A") (A") (A') (A") (A') (A') (A") (A') (A')
                 (A") (A') (A") (A') (A") (A") (A') (A') (A") (A')
                 (A") (A') (A") (A') (A') (A") (A") (A') (A') (A')
                 (A') (A") (A') (A") (A') (A") (A') (A') (A") (A')
                 (A') (A") (A") (A') (A') (A") (A') (A') (A') (A')
                 (A") (A") (A') (A") (A') (A") (A") (A') (A') (A")
                 (A') (A') (A') (A') (A')
 The electronic state is 1-A'.
 Alpha  occ. eigenvalues --  -19.13945 -10.21797  -1.01968  -0.68445  -0.50910
 Alpha  occ. eigenvalues --   -0.44394  -0.42904  -0.35062  -0.28536
 Alpha virt. eigenvalues --   -0.01718   0.00375   0.02019   0.02451   0.05591
 Alpha virt. eigenvalues --    0.06786   0.08759   0.08914   0.10291   0.11535
 Alpha virt. eigenvalues --    0.11586   0.12363   0.13065   0.16316   0.18721
 Alpha virt. eigenvalues --    0.21863   0.22131   0.23961   0.24574   0.25438
 Alpha virt. eigenvalues --    0.26634   0.27970   0.28231   0.30321   0.32067
 Alpha virt. eigenvalues --    0.32741   0.33034   0.34373   0.35195   0.37002
 Alpha virt. eigenvalues --    0.38072   0.40225   0.41899   0.42115   0.53129
 Alpha virt. eigenvalues --    0.53387   0.55189   0.58836   0.62163   0.63721
 Alpha virt. eigenvalues --    0.65566   0.67523   0.69977   0.70348   0.74345
 Alpha virt. eigenvalues --    0.75361   0.78606   0.79318   0.79629   0.80043
 Alpha virt. eigenvalues --    0.82601   0.83952   0.84040   0.86806   0.89330
 Alpha virt. eigenvalues --    0.91836   0.91914   0.95056   0.96966   0.97783
 Alpha virt. eigenvalues --    0.99222   0.99430   1.03493   1.05923   1.06255
 Alpha virt. eigenvalues --    1.11918   1.15826   1.16765   1.19737   1.23478
 Alpha virt. eigenvalues --    1.24979   1.34507   1.35185   1.36474   1.38933
 Alpha virt. eigenvalues --    1.40339   1.41700   1.44812   1.46485   1.46514
 Alpha virt. eigenvalues --    1.49295   1.52802   1.54332   1.66312   1.69898
 Alpha virt. eigenvalues --    1.73236   1.76043   1.79060   1.83873   1.84726
 Alpha virt. eigenvalues --    1.86529   1.94007   1.94906   2.10459   2.18788
 Alpha virt. eigenvalues --    2.20155   2.23529   2.29059   2.31760   2.45176
 Alpha virt. eigenvalues --    2.49015   2.51422   2.53977   2.59870   2.64873
 Alpha virt. eigenvalues --    2.68057   2.75191   2.87182   3.00154   3.05392
 Alpha virt. eigenvalues --    3.17322   3.23318   3.26395   3.28376   3.29313
 Alpha virt. eigenvalues --    3.35273   3.41088   3.50922   3.52500   3.55170
 Alpha virt. eigenvalues --    3.58853   3.66017   3.71743   3.76689   3.77290
 Alpha virt. eigenvalues --    3.81181   3.84709   3.88522   3.92063   3.94514
 Alpha virt. eigenvalues --    4.07941   4.15258   4.16120   4.19258   4.21412
 Alpha virt. eigenvalues --    4.28153   4.39859   4.40108   4.44418   4.53161
 Alpha virt. eigenvalues --    4.59139   4.68083   4.70387   4.73457   4.74889
 Alpha virt. eigenvalues --    4.84767   4.87287   4.96350   5.03249   5.14790
 Alpha virt. eigenvalues --    5.16778   5.21920   5.23358   5.31187   5.65553
 Alpha virt. eigenvalues --    5.71983   5.72164   5.73507   6.06244   6.22848
 Alpha virt. eigenvalues --    6.24452   6.41752   6.43342   6.57447   6.71487
 Alpha virt. eigenvalues --    6.76146   6.84698   6.92647   7.02222   7.17671
 Alpha virt. eigenvalues --    7.32761   7.57390   7.89362  14.29012  16.61639
          Condensed to atoms (all electrons):
               1          2          3          4          5          6
     1  C    5.203678   0.047772   0.022126   0.385572   0.385572   0.405190
     2  O    0.047772   8.290319   0.162739  -0.002058  -0.002058  -0.032700
     3  H    0.022126   0.162739   0.620754   0.004028   0.004028   0.000799
     4  H    0.385572  -0.002058   0.004028   0.392987  -0.011132   0.000019
     5  H    0.385572  -0.002058   0.004028  -0.011132   0.392987   0.000019
     6  H    0.405190  -0.032700   0.000799   0.000019   0.000019   0.359436
 Mulliken charges:
               1
     1  C   -0.449912
     2  O   -0.464015
     3  H    0.185525
     4  H    0.230583
     5  H    0.230583
     6  H    0.267237
 Sum of Mulliken charges =  -0.00000
 Mulliken charges with hydrogens summed into heavy atoms:
               1
     1  C    0.278490
     2  O   -0.278490
 Electronic spatial extent (au):  <R**2>=             85.7046
 Charge=             -0.0000 electrons
 Dipole moment (field-independent basis, Debye):
    X=              1.3814    Y=              1.0787    Z=              0.0000  Tot=              1.7527
 Quadrupole moment (field-independent basis, Debye-Ang):
   XX=            -11.8170   YY=            -13.8900   ZZ=            -14.0227
   XY=             -2.0110   XZ=             -0.0000   YZ=              0.0000
 Traceless Quadrupole moment (field-independent basis, Debye-Ang):
   XX=              1.4262   YY=             -0.6468   ZZ=             -0.7795
   XY=             -2.0110   XZ=             -0.0000   YZ=              0.0000
 Octapole moment (field-independent basis, Debye-Ang**2):
  XXX=              1.2095  YYY=             -3.1174  ZZZ=              0.0000  XYY=              2.0654
  XXY=             -2.1657  XXZ=             -0.0000  XZZ=              0.6256  YZZ=             -0.1460
  YYZ=              0.0000  XYZ=              0.0000
 Hexadecapole moment (field-independent basis, Debye-Ang**3):
 XXXX=            -20.4849 YYYY=            -66.7508 ZZZZ=            -21.2300 XXXY=             -1.1618
 XXXZ=             -0.0000 YYYX=             -1.0244 YYYZ=             -0.0000 ZZZX=             -0.0000
 ZZZY=              0.0000 XXYY=            -13.3221 XXZZ=             -7.4071 YYZZ=            -15.2656
 XXYZ=              0.0000 YYXZ=             -0.0000 ZZXY=              0.9619
 N-N= 3.997444907450D+01 E-N=-3.513114957467D+02  KE= 1.149774031408D+02
 Symmetry A'   KE= 1.083284757476D+02
 Symmetry A"   KE= 6.648927393265D+00
 No NMR shielding tensors so no spin-rotation constants.
 Leave Link  601 at Sun May 15 14:12:04 2022, MaxMem=   134217728 cpu:               0.2 elap:               0.2
 (Enter /software/commercial/MERCURY/GAUSSIAN/SSE4/g16/l701.exe)
 ... and contract with generalized density number  0.
 Compute integral first derivatives.
 Leave Link  701 at Sun May 15 14:12:05 2022, MaxMem=   134217728 cpu:               0.1 elap:               0.2
 (Enter /software/commercial/MERCURY/GAUSSIAN/SSE4/g16/l702.exe)
 L702 exits ... SP integral derivatives will be done elsewhere.
 Leave Link  702 at Sun May 15 14:12:05 2022, MaxMem=   134217728 cpu:               0.0 elap:               0.0
 (Enter /software/commercial/MERCURY/GAUSSIAN/SSE4/g16/l703.exe)
 Integral derivatives from FoFJK, PRISM(SPDF).
 Compute integral first derivatives, UseDBF=F ICtDFT=           0.
 Calling FoFJK, ICntrl=      2127 FMM=F ISym2X=1 I1Cent= 0 IOpClX= 0 NMat=1 NMatS=1 NMatT=0.
 FoFJK:  IHMeth= 1 ICntrl=    2127 DoSepK=F KAlg= 0 I1Cent=           0 FoldK=F
 IRaf=         0 NMat=       1 IRICut=       1 DoRegI=T DoRafI=F ISym2E= 1 IDoP0=0 IntGTp=1.
 FoFCou: FMM=F IPFlag=           0 FMFlag=      100000 FMFlg1=         800
         NFxFlg=           0 DoJE=F BraDBF=F KetDBF=F FulRan=T
         wScrn=  0.000000 ICntrl=      2127 IOpCl=  0 I1Cent=           0 NGrid=           0
         NMat0=    1 NMatS0=      1 NMatT0=    0 NMatD0=    1 NMtDS0=    0 NMtDT0=    0
 Petite list used in FoFCou.
 Leave Link  703 at Sun May 15 14:12:23 2022, MaxMem=   134217728 cpu:              18.7 elap:              18.8
 (Enter /software/commercial/MERCURY/GAUSSIAN/SSE4/g16/l716.exe)
 Dipole        = 5.43481381D-01 4.24409452D-01 0.00000000D+00
 ***** Axes restored to original set *****
 -------------------------------------------------------------------
 Center     Atomic                   Forces (Hartrees/Bohr)
 Number     Number              X              Y              Z
 -------------------------------------------------------------------
      1        6          -0.002775301   -0.005609722   -0.000000000
      2        8          -0.002693380    0.032412279    0.000000000
      3        1          -0.000054151   -0.026998827    0.000000000
      4        1           0.001798509   -0.000636480    0.000444288
      5        1           0.001798509   -0.000636480   -0.000444288
      6        1           0.001925814    0.001469231   -0.000000000
 -------------------------------------------------------------------
 Cartesian Forces:  Max     0.032412279 RMS     0.010109024
 Leave Link  716 at Sun May 15 14:12:23 2022, MaxMem=   134217728 cpu:               0.1 elap:               0.1
 (Enter /software/commercial/MERCURY/GAUSSIAN/SSE4/g16/l103.exe)

 GradGradGradGradGradGradGradGradGradGradGradGradGradGradGradGradGradGrad
 Berny optimization.
 FormGI is forming the generalized inverse of G from B-inverse, IUseBI=4.
 Internal  Forces:  Max     0.025878370 RMS     0.007780482
 Search for a local minimum.
 Step number   1 out of a maximum of   25
 All quantities printed in internal units (Hartrees-Bohrs-Radians)
 RMS Force = .77805D-02 SwitMx=.10000D-02 MixMth= 1
 Mixed Optimization -- RFO/linear search
 Second derivative matrix not updated -- first step.
 The second derivative matrix:
                          R1        R2        R3        R4        R5
           R1           0.40561
           R2           0.00000   0.34234
           R3           0.00000   0.00000   0.34234
           R4           0.00000   0.00000   0.00000   0.34645
           R5           0.00000   0.00000   0.00000   0.00000   0.49284
           A1           0.00000   0.00000   0.00000   0.00000   0.00000
           A2           0.00000   0.00000   0.00000   0.00000   0.00000
           A3           0.00000   0.00000   0.00000   0.00000   0.00000
           A4           0.00000   0.00000   0.00000   0.00000   0.00000
           A5           0.00000   0.00000   0.00000   0.00000   0.00000
           A6           0.00000   0.00000   0.00000   0.00000   0.00000
           A7           0.00000   0.00000   0.00000   0.00000   0.00000
           D1           0.00000   0.00000   0.00000   0.00000   0.00000
           D2           0.00000   0.00000   0.00000   0.00000   0.00000
           D3           0.00000   0.00000   0.00000   0.00000   0.00000
                          A1        A2        A3        A4        A5
           A1           0.16000
           A2           0.00000   0.16000
           A3           0.00000   0.00000   0.16000
           A4           0.00000   0.00000   0.00000   0.16000
           A5           0.00000   0.00000   0.00000   0.00000   0.16000
           A6           0.00000   0.00000   0.00000   0.00000   0.00000
           A7           0.00000   0.00000   0.00000   0.00000   0.00000
           D1           0.00000   0.00000   0.00000   0.00000   0.00000
           D2           0.00000   0.00000   0.00000   0.00000   0.00000
           D3           0.00000   0.00000   0.00000   0.00000   0.00000
                          A6        A7        D1        D2        D3
           A6           0.16000
           A7           0.00000   0.16000
           D1           0.00000   0.00000   0.01255
           D2           0.00000   0.00000   0.00000   0.01255
           D3           0.00000   0.00000   0.00000   0.00000   0.01255
 ITU=  0
     Eigenvalues ---    0.01255   0.09792   0.10345   0.16000   0.16000
     Eigenvalues ---    0.16000   0.16000   0.34234   0.34234   0.34645
     Eigenvalues ---    0.40561   0.49284
 RFO step:  Lambda=-2.76916681D-03 EMin= 1.25527411D-02
 Linear search not attempted -- first point.
 Iteration  1 RMS(Cart)=  0.03148892 RMS(Int)=  0.00140506
 Iteration  2 RMS(Cart)=  0.00157101 RMS(Int)=  0.00003236
 Iteration  3 RMS(Cart)=  0.00000206 RMS(Int)=  0.00003231
 Iteration  4 RMS(Cart)=  0.00000000 RMS(Int)=  0.00003231
 ITry= 1 IFail=0 DXMaxC= 7.74D-02 DCOld= 1.00D+10 DXMaxT= 3.00D-01 DXLimC= 3.00D+00 Rises=F
 ClnCor:  largest displacement from symmetrization is 3.36D-13 for atom     5.
 Variable       Old X    -DE/DX   Delta X   Delta X   Delta X     New X
                                 (Linear)    (Quad)   (Total)
    R1        2.70797  -0.00301   0.00000  -0.00737  -0.00737   2.70060
    R2        2.06937  -0.00058   0.00000  -0.00168  -0.00168   2.06769
    R3        2.06937  -0.00058   0.00000  -0.00168  -0.00168   2.06769
    R4        2.06255  -0.00205   0.00000  -0.00587  -0.00587   2.05668
    R5        1.87295  -0.02588   0.00000  -0.05222  -0.05222   1.82074
    A1        1.96123  -0.00162   0.00000  -0.00945  -0.00949   1.95174
    A2        1.96123  -0.00162   0.00000  -0.00945  -0.00949   1.95174
    A3        1.87858  -0.00142   0.00000  -0.00973  -0.00979   1.86878
    A4        1.88668   0.00247   0.00000   0.01694   0.01692   1.90360
    A5        1.88674   0.00119   0.00000   0.00632   0.00626   1.89300
    A6        1.88674   0.00119   0.00000   0.00632   0.00626   1.89300
    A7        1.81264   0.01442   0.00000   0.08858   0.08858   1.90122
    D1       -1.06627  -0.00041   0.00000  -0.00408  -0.00405  -1.07032
    D2        1.06627   0.00041   0.00000   0.00408   0.00405   1.07032
    D3        3.14159   0.00000   0.00000  -0.00000   0.00000   3.14159
         Item               Value     Threshold  Converged?
 Maximum Force            0.025878     0.000450     NO 
 RMS     Force            0.007780     0.000300     NO 
 Maximum Displacement     0.077353     0.001800     NO 
 RMS     Displacement     0.030821     0.001200     NO 
 Predicted change in Energy=-1.400246D-03
 Lowest energy point so far.  Saving SCF results.
 GradGradGradGradGradGradGradGradGradGradGradGradGradGradGradGradGradGrad

 Leave Link  103 at Sun May 15 14:12:24 2022, MaxMem=   134217728 cpu:               0.0 elap:               0.1
 (Enter /software/commercial/MERCURY/GAUSSIAN/SSE4/g16/l202.exe)
                          Input orientation:                          
 ---------------------------------------------------------------------
 Center     Atomic      Atomic             Coordinates (Angstroms)
 Number     Number       Type             X           Y           Z
 ---------------------------------------------------------------------
      1          6           0        0.016199    0.017472    0.000000
      2          8           0        1.444535   -0.029142    0.000000
      3          1           0        1.786695    0.871548    0.000000
      4          1           0       -0.374495    0.517880    0.891162
      5          1           0       -0.374495    0.517880   -0.891162
      6          1           0       -0.337102   -1.011937    0.000000
 ---------------------------------------------------------------------
                    Distance matrix (angstroms):
                    1          2          3          4          5
     1  C    0.000000
     2  O    1.429097   0.000000
     3  H    1.965732   0.963492   0.000000
     4  H    1.094175   2.098159   2.364316   0.000000
     5  H    1.094175   2.098159   2.364316   1.782324   0.000000
     6  H    1.088349   2.034727   2.838666   1.770849   1.770849
                    6
     6  H    0.000000
 Stoichiometry    CH4O
 Framework group  CS[SG(CH2O),X(H2)]
 Deg. of freedom     8
 Full point group                 CS      NOp   2
 RotChk:  IX=0 Diff= 2.36D-02
 Largest Abelian subgroup         CS      NOp   2
 Largest concise Abelian subgroup CS      NOp   2
                         Standard orientation:                         
 ---------------------------------------------------------------------
 Center     Atomic      Atomic             Coordinates (Angstroms)
 Number     Number       Type             X           Y           Z
 ---------------------------------------------------------------------
      1          6           0       -0.046988    0.668962    0.000000
      2          8           0       -0.046988   -0.760135    0.000000
      3          1           0        0.864384   -1.072734    0.000000
      4          1           0        0.440410    1.075770    0.891162
      5          1           0        0.440410    1.075770   -0.891162
      6          1           0       -1.087373    0.988498    0.000000
 ---------------------------------------------------------------------
 Rotational constants (GHZ):         128.4310767          24.5222090          23.6794480
 Leave Link  202 at Sun May 15 14:12:24 2022, MaxMem=   134217728 cpu:               0.0 elap:               0.0
 (Enter /software/commercial/MERCURY/GAUSSIAN/SSE4/g16/l301.exe)
 Standard basis: Aug-CC-pVTZ (5D, 7F)
 Ernie: Thresh=  0.10000D-02 Tol=  0.10000D-05 Strict=F.
 Ernie:  6 primitive shells out of 104 were deleted.
 There are   135 symmetry adapted cartesian basis functions of A'  symmetry.
 There are    75 symmetry adapted cartesian basis functions of A"  symmetry.
 There are   115 symmetry adapted basis functions of A'  symmetry.
 There are    69 symmetry adapted basis functions of A"  symmetry.
   184 basis functions,   252 primitive gaussians,   210 cartesian basis functions
     9 alpha electrons        9 beta electrons
       nuclear repulsion energy        40.1483023471 Hartrees.
 IExCor=  402 DFT=T Ex+Corr=B3LYP ExCW=0 ScaHFX=  0.200000
 ScaDFX=  0.800000  0.720000  1.000000  0.810000 ScalE2=  1.000000  1.000000
 IRadAn=      5 IRanWt=     -1 IRanGd=            0 ICorTp=0 IEmpDi=  4
 NAtoms=    6 NActive=    6 NUniq=    5 SFac= 1.44D+00 NAtFMM=   60 NAOKFM=F Big=F
 Integral buffers will be    131072 words long.
 Raffenetti 2 integral format.
 Two-electron integral symmetry is turned on.
 Leave Link  301 at Sun May 15 14:12:24 2022, MaxMem=   134217728 cpu:               0.1 elap:               0.1
 (Enter /software/commercial/MERCURY/GAUSSIAN/SSE4/g16/l302.exe)
 NPDir=0 NMtPBC=     1 NCelOv=     1 NCel=       1 NClECP=     1 NCelD=      1
         NCelK=      1 NCelE2=     1 NClLst=     1 CellRange=     0.0.
 One-electron integrals computed using PRISM.
 One-electron integral symmetry used in STVInt
 NBasis=   184 RedAO= T EigKep=  6.29D-05  NBF=   115    69
 NBsUse=   184 1.00D-06 EigRej= -1.00D+00 NBFU=   115    69
 Precomputing XC quadrature grid using
 IXCGrd= 4 IRadAn=           5 IRanWt=          -1 IRanGd=           0 AccXCQ= 0.00D+00.
 Generated NRdTot=       0 NPtTot=           0 NUsed=           0 NTot=          32
 NSgBfM=   210   210   210   210   210 MxSgAt=     6 MxSgA2=     6.
 Leave Link  302 at Sun May 15 14:12:24 2022, MaxMem=   134217728 cpu:               0.2 elap:               0.2
 (Enter /software/commercial/MERCURY/GAUSSIAN/SSE4/g16/l303.exe)
 DipDrv:  MaxL=1.
 Leave Link  303 at Sun May 15 14:12:24 2022, MaxMem=   134217728 cpu:               0.1 elap:               0.1
 (Enter /software/commercial/MERCURY/GAUSSIAN/SSE4/g16/l401.exe)
 Initial guess from the checkpoint file:  "/home/thomasegg/AlcoholMixtureSpec/Gau-1083106.chk"
 B after Tr=    -0.000000   -0.000000   -0.000000
         Rot=    0.999992   -0.000000    0.000000    0.003882 Ang=   0.44 deg.
 Guess basis will be translated and rotated to current coordinates.
 JPrj=2 DoOrth=T DoCkMO=T.
 Initial guess orbital symmetries:
       Occupied  (A') (A') (A') (A') (A') (A") (A') (A') (A")
       Virtual   (A') (A') (A") (A') (A') (A') (A') (A") (A') (A')
                 (A") (A') (A") (A') (A') (A") (A') (A') (A") (A')
                 (A") (A') (A") (A') (A') (A') (A") (A') (A') (A')
                 (A") (A') (A") (A') (A") (A') (A') (A') (A') (A")
                 (A') (A") (A") (A') (A') (A") (A") (A') (A") (A')
                 (A') (A") (A') (A') (A') (A') (A") (A') (A') (A")
                 (A") (A') (A") (A') (A") (A') (A") (A') (A') (A')
                 (A") (A') (A") (A') (A') (A") (A') (A") (A') (A")
                 (A') (A') (A") (A') (A") (A') (A") (A') (A') (A")
                 (A') (A") (A') (A') (A") (A') (A") (A') (A') (A')
                 (A") (A') (A') (A") (A") (A') (A') (A') (A') (A")
                 (A') (A") (A") (A') (A") (A') (A') (A") (A') (A')
                 (A") (A') (A") (A') (A") (A") (A') (A') (A") (A')
                 (A") (A') (A") (A') (A') (A") (A") (A') (A') (A')
                 (A') (A") (A') (A") (A') (A") (A') (A') (A") (A')
                 (A') (A") (A") (A') (A') (A") (A') (A') (A') (A')
                 (A") (A") (A') (A") (A') (A") (A") (A') (A') (A")
                 (A') (A') (A') (A') (A')
 The electronic state of the initial guess is 1-A'.
 Generating alternative initial guess.
 ExpMin= 2.53D-02 ExpMax= 1.53D+04 ExpMxC= 5.22D+02 IAcc=3 IRadAn=         5 AccDes= 0.00D+00
 Harris functional with IExCor=  402 and IRadAn=       5 diagonalized for initial guess.
 HarFok:  IExCor=  402 AccDes= 0.00D+00 IRadAn=         5 IDoV= 1 UseB2=F ITyADJ=14
 ICtDFT=  3500011 ScaDFX=  1.000000  1.000000  1.000000  1.000000
 FoFCou: FMM=F IPFlag=           0 FMFlag=      100000 FMFlg1=           0
         NFxFlg=           0 DoJE=T BraDBF=F KetDBF=T FulRan=T
         wScrn=  0.000000 ICntrl=       500 IOpCl=  0 I1Cent=   200000004 NGrid=           0
         NMat0=    1 NMatS0=      1 NMatT0=    0 NMatD0=    1 NMtDS0=    0 NMtDT0=    0
 Petite list used in FoFCou.
 Harris En= -115.807757443807    
 Leave Link  401 at Sun May 15 14:12:26 2022, MaxMem=   134217728 cpu:               1.9 elap:               1.9
 (Enter /software/commercial/MERCURY/GAUSSIAN/SSE4/g16/l502.exe)
 Integral symmetry usage will be decided dynamically.
 Closed shell SCF:
 Using DIIS extrapolation, IDIIS=  1040.
 NGot=   134217728 LenX=   134125808 LenY=   134081267
 Requested convergence on RMS density matrix=1.00D-08 within 128 cycles.
 Requested convergence on MAX density matrix=1.00D-06.
 Requested convergence on             energy=1.00D-06.
 No special actions if energy rises.
 Fock matrices will be formed incrementally for  20 cycles.

 Cycle   1  Pass 1  IDiag  1:
 FoFJK:  IHMeth= 1 ICntrl=       0 DoSepK=F KAlg= 0 I1Cent=           0 FoldK=F
 IRaf= 990000000 NMat=       1 IRICut=       1 DoRegI=T DoRafI=F ISym2E= 1 IDoP0=0 IntGTp=1.
 FoFCou: FMM=F IPFlag=           0 FMFlag=      100000 FMFlg1=           0
         NFxFlg=           0 DoJE=F BraDBF=F KetDBF=F FulRan=T
         wScrn=  0.000000 ICntrl=         0 IOpCl=  0 I1Cent=           0 NGrid=           0
         NMat0=    1 NMatS0=      1 NMatT0=    0 NMatD0=    1 NMtDS0=    0 NMtDT0=    0
 Petite list used in FoFCou.
 E= -115.775637731585    
 DIIS: error= 2.60D-03 at cycle   1 NSaved=   1.
 NSaved= 1 IEnMin= 1 EnMin= -115.775637731585     IErMin= 1 ErrMin= 2.60D-03
 ErrMax= 2.60D-03  0.00D+00 EMaxC= 1.00D-01 BMatC= 1.16D-03 BMatP= 1.16D-03
 IDIUse=3 WtCom= 9.74D-01 WtEn= 2.60D-02
 Coeff-Com:  0.100D+01
 Coeff-En:   0.100D+01
 Coeff:      0.100D+01
 Gap=     0.299 Goal=   None    Shift=    0.000
 GapD=    0.299 DampG=1.000 DampE=1.000 DampFc=1.0000 IDamp=-1.
 RMSDP=2.62D-04 MaxDP=9.33D-03              OVMax= 1.24D-02

 Cycle   2  Pass 1  IDiag  1:
 RMSU=  2.62D-04    CP:  1.00D+00
 E= -115.776703174218     Delta-E=       -0.001065442633 Rises=F Damp=F
 DIIS: error= 4.05D-04 at cycle   2 NSaved=   2.
 NSaved= 2 IEnMin= 2 EnMin= -115.776703174218     IErMin= 2 ErrMin= 4.05D-04
 ErrMax= 4.05D-04  0.00D+00 EMaxC= 1.00D-01 BMatC= 3.48D-05 BMatP= 1.16D-03
 IDIUse=3 WtCom= 9.96D-01 WtEn= 4.05D-03
 Coeff-Com:  0.316D-01 0.968D+00
 Coeff-En:   0.000D+00 0.100D+01
 Coeff:      0.315D-01 0.969D+00
 Gap=     0.270 Goal=   None    Shift=    0.000
 RMSDP=3.41D-05 MaxDP=1.97D-03 DE=-1.07D-03 OVMax= 2.26D-03

 Cycle   3  Pass 1  IDiag  1:
 RMSU=  3.33D-05    CP:  9.99D-01  1.01D+00
 E= -115.776720167307     Delta-E=       -0.000016993089 Rises=F Damp=F
 DIIS: error= 2.38D-04 at cycle   3 NSaved=   3.
 NSaved= 3 IEnMin= 3 EnMin= -115.776720167307     IErMin= 3 ErrMin= 2.38D-04
 ErrMax= 2.38D-04  0.00D+00 EMaxC= 1.00D-01 BMatC= 1.12D-05 BMatP= 3.48D-05
 IDIUse=3 WtCom= 9.98D-01 WtEn= 2.38D-03
 Coeff-Com: -0.123D-01 0.343D+00 0.669D+00
 Coeff-En:   0.000D+00 0.243D-01 0.976D+00
 Coeff:     -0.122D-01 0.342D+00 0.670D+00
 Gap=     0.269 Goal=   None    Shift=    0.000
 RMSDP=1.28D-05 MaxDP=4.58D-04 DE=-1.70D-05 OVMax= 9.60D-04

 Cycle   4  Pass 1  IDiag  1:
 RMSU=  9.01D-06    CP:  9.99D-01  1.03D+00  7.52D-01
 E= -115.776725416807     Delta-E=       -0.000005249501 Rises=F Damp=F
 DIIS: error= 1.42D-04 at cycle   4 NSaved=   4.
 NSaved= 4 IEnMin= 4 EnMin= -115.776725416807     IErMin= 4 ErrMin= 1.42D-04
 ErrMax= 1.42D-04  0.00D+00 EMaxC= 1.00D-01 BMatC= 3.80D-06 BMatP= 1.12D-05
 IDIUse=3 WtCom= 9.99D-01 WtEn= 1.42D-03
 Coeff-Com: -0.830D-02 0.142D+00 0.412D+00 0.454D+00
 Coeff-En:   0.000D+00 0.000D+00 0.224D+00 0.776D+00
 Coeff:     -0.829D-02 0.142D+00 0.412D+00 0.454D+00
 Gap=     0.270 Goal=   None    Shift=    0.000
 RMSDP=4.95D-06 MaxDP=1.54D-04 DE=-5.25D-06 OVMax= 4.33D-04

 Cycle   5  Pass 1  IDiag  1:
 RMSU=  2.21D-06    CP:  9.99D-01  1.03D+00  7.93D-01  5.38D-01
 E= -115.776727932921     Delta-E=       -0.000002516114 Rises=F Damp=F
 DIIS: error= 1.66D-05 at cycle   5 NSaved=   5.
 NSaved= 5 IEnMin= 5 EnMin= -115.776727932921     IErMin= 5 ErrMin= 1.66D-05
 ErrMax= 1.66D-05  0.00D+00 EMaxC= 1.00D-01 BMatC= 4.24D-08 BMatP= 3.80D-06
 IDIUse=1 WtCom= 1.00D+00 WtEn= 0.00D+00
 Coeff-Com: -0.142D-02 0.135D-01 0.721D-01 0.139D+00 0.777D+00
 Coeff:     -0.142D-02 0.135D-01 0.721D-01 0.139D+00 0.777D+00
 Gap=     0.270 Goal=   None    Shift=    0.000
 RMSDP=7.29D-07 MaxDP=1.85D-05 DE=-2.52D-06 OVMax= 7.05D-05

 Cycle   6  Pass 1  IDiag  1:
 RMSU=  5.12D-07    CP:  9.99D-01  1.03D+00  8.01D-01  5.72D-01  8.82D-01
 E= -115.776727964434     Delta-E=       -0.000000031513 Rises=F Damp=F
 DIIS: error= 3.84D-06 at cycle   6 NSaved=   6.
 NSaved= 6 IEnMin= 6 EnMin= -115.776727964434     IErMin= 6 ErrMin= 3.84D-06
 ErrMax= 3.84D-06  0.00D+00 EMaxC= 1.00D-01 BMatC= 2.62D-09 BMatP= 4.24D-08
 IDIUse=1 WtCom= 1.00D+00 WtEn= 0.00D+00
 Coeff-Com: -0.144D-03-0.186D-02 0.734D-02 0.326D-01 0.291D+00 0.671D+00
 Coeff:     -0.144D-03-0.186D-02 0.734D-02 0.326D-01 0.291D+00 0.671D+00
 Gap=     0.270 Goal=   None    Shift=    0.000
 RMSDP=2.21D-07 MaxDP=7.26D-06 DE=-3.15D-08 OVMax= 1.83D-05

 Cycle   7  Pass 1  IDiag  1:
 RMSU=  1.57D-07    CP:  9.99D-01  1.03D+00  8.02D-01  5.72D-01  9.08D-01
                    CP:  7.30D-01
 E= -115.776727966689     Delta-E=       -0.000000002255 Rises=F Damp=F
 DIIS: error= 1.32D-06 at cycle   7 NSaved=   7.
 NSaved= 7 IEnMin= 7 EnMin= -115.776727966689     IErMin= 7 ErrMin= 1.32D-06
 ErrMax= 1.32D-06  0.00D+00 EMaxC= 1.00D-01 BMatC= 3.22D-10 BMatP= 2.62D-09
 IDIUse=1 WtCom= 1.00D+00 WtEn= 0.00D+00
 Coeff-Com:  0.303D-04-0.209D-02-0.246D-02 0.520D-02 0.827D-01 0.327D+00
 Coeff-Com:  0.589D+00
 Coeff:      0.303D-04-0.209D-02-0.246D-02 0.520D-02 0.827D-01 0.327D+00
 Coeff:      0.589D+00
 Gap=     0.270 Goal=   None    Shift=    0.000
 RMSDP=6.16D-08 MaxDP=1.86D-06 DE=-2.26D-09 OVMax= 5.19D-06

 Cycle   8  Pass 1  IDiag  1:
 RMSU=  4.94D-08    CP:  9.99D-01  1.03D+00  8.03D-01  5.73D-01  9.08D-01
                    CP:  7.51D-01  8.01D-01
 E= -115.776727966988     Delta-E=       -0.000000000299 Rises=F Damp=F
 DIIS: error= 9.63D-08 at cycle   8 NSaved=   8.
 NSaved= 8 IEnMin= 8 EnMin= -115.776727966988     IErMin= 8 ErrMin= 9.63D-08
 ErrMax= 9.63D-08  0.00D+00 EMaxC= 1.00D-01 BMatC= 1.23D-12 BMatP= 3.22D-10
 IDIUse=1 WtCom= 1.00D+00 WtEn= 0.00D+00
 Coeff-Com:  0.143D-04-0.272D-03-0.847D-03-0.616D-03 0.124D-03 0.231D-01
 Coeff-Com:  0.733D-01 0.905D+00
 Coeff:      0.143D-04-0.272D-03-0.847D-03-0.616D-03 0.124D-03 0.231D-01
 Coeff:      0.733D-01 0.905D+00
 Gap=     0.270 Goal=   None    Shift=    0.000
 RMSDP=5.80D-09 MaxDP=1.23D-07 DE=-2.99D-10 OVMax= 5.66D-07

 SCF Done:  E(RB3LYP) =  -115.776727967     A.U. after    8 cycles
            NFock=  8  Conv=0.58D-08     -V/T= 2.0065
 KE= 1.150279548474D+02 PE=-3.516980724840D+02 EE= 8.074508732253D+01
 Leave Link  502 at Sun May 15 14:13:06 2022, MaxMem=   134217728 cpu:              39.7 elap:              39.9
 (Enter /software/commercial/MERCURY/GAUSSIAN/SSE4/g16/l701.exe)
 ... and contract with generalized density number  0.
 Compute integral first derivatives.
 Leave Link  701 at Sun May 15 14:13:06 2022, MaxMem=   134217728 cpu:               0.2 elap:               0.2
 (Enter /software/commercial/MERCURY/GAUSSIAN/SSE4/g16/l702.exe)
 L702 exits ... SP integral derivatives will be done elsewhere.
 Leave Link  702 at Sun May 15 14:13:06 2022, MaxMem=   134217728 cpu:               0.0 elap:               0.0
 (Enter /software/commercial/MERCURY/GAUSSIAN/SSE4/g16/l703.exe)
 Integral derivatives from FoFJK, PRISM(SPDF).
 Compute integral first derivatives, UseDBF=F ICtDFT=           0.
 Calling FoFJK, ICntrl=      2127 FMM=F ISym2X=1 I1Cent= 0 IOpClX= 0 NMat=1 NMatS=1 NMatT=0.
 FoFJK:  IHMeth= 1 ICntrl=    2127 DoSepK=F KAlg= 0 I1Cent=           0 FoldK=F
 IRaf=         0 NMat=       1 IRICut=       1 DoRegI=T DoRafI=F ISym2E= 1 IDoP0=0 IntGTp=1.
 FoFCou: FMM=F IPFlag=           0 FMFlag=      100000 FMFlg1=         800
         NFxFlg=           0 DoJE=F BraDBF=F KetDBF=F FulRan=T
         wScrn=  0.000000 ICntrl=      2127 IOpCl=  0 I1Cent=           0 NGrid=           0
         NMat0=    1 NMatS0=      1 NMatT0=    0 NMatD0=    1 NMtDS0=    0 NMtDT0=    0
 Petite list used in FoFCou.
 Leave Link  703 at Sun May 15 14:13:25 2022, MaxMem=   134217728 cpu:              18.8 elap:              18.9
 (Enter /software/commercial/MERCURY/GAUSSIAN/SSE4/g16/l716.exe)
 Dipole        = 5.31610579D-01 3.85232367D-01-2.22044605D-16
 ***** Axes restored to original set *****
 -------------------------------------------------------------------
 Center     Atomic                   Forces (Hartrees/Bohr)
 Number     Number              X              Y              Z
 -------------------------------------------------------------------
      1        6           0.002549134    0.000932398    0.000000000
      2        8          -0.002300172    0.001674619   -0.000000000
      3        1          -0.001243736   -0.002443102   -0.000000000
      4        1           0.000036879   -0.000124263   -0.000210802
      5        1           0.000036879   -0.000124263    0.000210802
      6        1           0.000921017    0.000084611   -0.000000000
 -------------------------------------------------------------------
 Cartesian Forces:  Max     0.002549134 RMS     0.001153645
 Leave Link  716 at Sun May 15 14:13:25 2022, MaxMem=   134217728 cpu:               0.0 elap:               0.0
 (Enter /software/commercial/MERCURY/GAUSSIAN/SSE4/g16/l103.exe)

 GradGradGradGradGradGradGradGradGradGradGradGradGradGradGradGradGradGrad
 Berny optimization.
 Using GEDIIS/GDIIS optimizer.
 FormGI is forming the generalized inverse of G from B-inverse, IUseBI=4.
 Internal  Forces:  Max     0.003516971 RMS     0.001233061
 Search for a local minimum.
 Step number   2 out of a maximum of   25
 All quantities printed in internal units (Hartrees-Bohrs-Radians)
 RMS Force = .12331D-02 SwitMx=.10000D-02 MixMth= 1
 Mixed Optimization -- RFO/linear search
 Update second derivatives using D2CorX and points    1    2
 DE= -1.47D-03 DEPred=-1.40D-03 R= 1.05D+00
 TightC=F SS=  1.41D+00  RLast= 1.06D-01 DXNew= 5.0454D-01 3.1947D-01
 Trust test= 1.05D+00 RLast= 1.06D-01 DXMaxT set to 3.19D-01
 The second derivative matrix:
                          R1        R2        R3        R4        R5
           R1           0.40245
           R2          -0.00069   0.34226
           R3          -0.00069  -0.00008   0.34226
           R4          -0.00254  -0.00021  -0.00021   0.34600
           R5          -0.03256  -0.00243  -0.00243  -0.00441   0.45475
           A1          -0.00203  -0.00007  -0.00007   0.00010   0.00271
           A2          -0.00203  -0.00007  -0.00007   0.00010   0.00271
           A3          -0.00172  -0.00032  -0.00032  -0.00114  -0.01436
           A4           0.00342   0.00026   0.00026   0.00048   0.00419
           A5           0.00125   0.00010   0.00010   0.00021   0.00205
           A6           0.00125   0.00010   0.00010   0.00021   0.00205
           A7           0.01836   0.00105   0.00105   0.00103   0.00157
           D1          -0.00008   0.00001   0.00001   0.00006   0.00086
           D2           0.00008  -0.00001  -0.00001  -0.00006  -0.00086
           D3           0.00000  -0.00000  -0.00000  -0.00000  -0.00000
                          A1        A2        A3        A4        A5
           A1           0.16057
           A2           0.00057   0.16057
           A3          -0.00084  -0.00084   0.15910
           A4          -0.00027  -0.00027   0.00151   0.15954
           A5          -0.00006  -0.00006   0.00056  -0.00022   0.15990
           A6          -0.00006  -0.00006   0.00056  -0.00022  -0.00010
           A7          -0.00311  -0.00311   0.00787  -0.00028  -0.00043
           D1           0.00008   0.00008  -0.00003  -0.00009  -0.00003
           D2          -0.00008  -0.00008   0.00003   0.00009   0.00003
           D3          -0.00000  -0.00000  -0.00000   0.00000   0.00000
                          A6        A7        D1        D2        D3
           A6           0.15990
           A7          -0.00043   0.17166
           D1          -0.00003  -0.00060   0.01256
           D2           0.00003   0.00060  -0.00001   0.01256
           D3           0.00000   0.00000  -0.00000   0.00000   0.01255
 ITU=  1  0
 Use linear search instead of GDIIS.
     Eigenvalues ---    0.01255   0.09835   0.10455   0.15472   0.16000
     Eigenvalues ---    0.16000   0.17479   0.34196   0.34234   0.34566
     Eigenvalues ---    0.38901   0.47113
 RFO step:  Lambda=-6.41821211D-05 EMin= 1.25527411D-02
 Quartic linear search produced a step of  0.05131.
 Iteration  1 RMS(Cart)=  0.00585593 RMS(Int)=  0.00001482
 Iteration  2 RMS(Cart)=  0.00001163 RMS(Int)=  0.00000477
 Iteration  3 RMS(Cart)=  0.00000000 RMS(Int)=  0.00000477
 ITry= 1 IFail=0 DXMaxC= 1.52D-02 DCOld= 1.00D+10 DXMaxT= 3.19D-01 DXLimC= 3.00D+00 Rises=F
 ClnCor:  largest displacement from symmetrization is 1.03D-12 for atom     5.
 Variable       Old X    -DE/DX   Delta X   Delta X   Delta X     New X
                                 (Linear)    (Quad)   (Total)
    R1        2.70060  -0.00352  -0.00038  -0.00890  -0.00928   2.69132
    R2        2.06769  -0.00024  -0.00009  -0.00069  -0.00078   2.06691
    R3        2.06769  -0.00024  -0.00009  -0.00069  -0.00078   2.06691
    R4        2.05668  -0.00038  -0.00030  -0.00098  -0.00128   2.05540
    R5        1.82074  -0.00273  -0.00268  -0.00432  -0.00699   1.81374
    A1        1.95174   0.00030  -0.00049   0.00265   0.00215   1.95389
    A2        1.95174   0.00030  -0.00049   0.00265   0.00215   1.95389
    A3        1.86878  -0.00138  -0.00050  -0.00942  -0.00993   1.85885
    A4        1.90360   0.00006   0.00087   0.00104   0.00190   1.90550
    A5        1.89300   0.00035   0.00032   0.00144   0.00176   1.89476
    A6        1.89300   0.00035   0.00032   0.00144   0.00176   1.89476
    A7        1.90122  -0.00054   0.00454  -0.00625  -0.00170   1.89952
    D1       -1.07032  -0.00026  -0.00021  -0.00262  -0.00283  -1.07315
    D2        1.07032   0.00026   0.00021   0.00262   0.00283   1.07315
    D3        3.14159  -0.00000   0.00000  -0.00000   0.00000   3.14159
         Item               Value     Threshold  Converged?
 Maximum Force            0.003517     0.000450     NO 
 RMS     Force            0.001233     0.000300     NO 
 Maximum Displacement     0.015222     0.001800     NO 
 RMS     Displacement     0.005859     0.001200     NO 
 Predicted change in Energy=-3.570822D-05
 Lowest energy point so far.  Saving SCF results.
 GradGradGradGradGradGradGradGradGradGradGradGradGradGradGradGradGradGrad

 Leave Link  103 at Sun May 15 14:13:25 2022, MaxMem=   134217728 cpu:               0.0 elap:               0.1
 (Enter /software/commercial/MERCURY/GAUSSIAN/SSE4/g16/l202.exe)
                          Input orientation:                          
 ---------------------------------------------------------------------
 Center     Atomic      Atomic             Coordinates (Angstroms)
 Number     Number       Type             X           Y           Z
 ---------------------------------------------------------------------
      1          6           0        0.016895    0.020417    0.000000
      2          8           0        1.440178   -0.030308    0.000000
      3          1           0        1.782187    0.866479    0.000000
      4          1           0       -0.374438    0.518943    0.891430
      5          1           0       -0.374438    0.518943   -0.891430
      6          1           0       -0.329046   -1.010773    0.000000
 ---------------------------------------------------------------------
                    Distance matrix (angstroms):
                    1          2          3          4          5
     1  C    0.000000
     2  O    1.424187   0.000000
     3  H    1.957569   0.959790   0.000000
     4  H    1.093763   2.095031   2.359334   0.000000
     5  H    1.093763   2.095031   2.359334   1.782860   0.000000
     6  H    1.087671   2.022738   2.825134   1.771084   1.771084
                    6
     6  H    0.000000
 Stoichiometry    CH4O
 Framework group  CS[SG(CH2O),X(H2)]
 Deg. of freedom     8
 Full point group                 CS      NOp   2
 RotChk:  IX=0 Diff= 4.24D-03
 Largest Abelian subgroup         CS      NOp   2
 Largest concise Abelian subgroup CS      NOp   2
                         Standard orientation:                         
 ---------------------------------------------------------------------
 Center     Atomic      Atomic             Coordinates (Angstroms)
 Number     Number       Type             X           Y           Z
 ---------------------------------------------------------------------
      1          6           0       -0.046338    0.666714    0.000000
      2          8           0       -0.046338   -0.757473    0.000000
      3          1           0        0.862061   -1.067323    0.000000
      4          1           0        0.437933    1.075555    0.891430
      5          1           0        0.437933    1.075555   -0.891430
      6          1           0       -1.089195    0.975708    0.000000
 ---------------------------------------------------------------------
 Rotational constants (GHZ):         128.5608009          24.6868614          23.8395683
 Leave Link  202 at Sun May 15 14:13:25 2022, MaxMem=   134217728 cpu:               0.0 elap:               0.0
 (Enter /software/commercial/MERCURY/GAUSSIAN/SSE4/g16/l301.exe)
 Standard basis: Aug-CC-pVTZ (5D, 7F)
 Ernie: Thresh=  0.10000D-02 Tol=  0.10000D-05 Strict=F.
 Ernie:  6 primitive shells out of 104 were deleted.
 There are   135 symmetry adapted cartesian basis functions of A'  symmetry.
 There are    75 symmetry adapted cartesian basis functions of A"  symmetry.
 There are   115 symmetry adapted basis functions of A'  symmetry.
 There are    69 symmetry adapted basis functions of A"  symmetry.
   184 basis functions,   252 primitive gaussians,   210 cartesian basis functions
     9 alpha electrons        9 beta electrons
       nuclear repulsion energy        40.2572992079 Hartrees.
 IExCor=  402 DFT=T Ex+Corr=B3LYP ExCW=0 ScaHFX=  0.200000
 ScaDFX=  0.800000  0.720000  1.000000  0.810000 ScalE2=  1.000000  1.000000
 IRadAn=      5 IRanWt=     -1 IRanGd=            0 ICorTp=0 IEmpDi=  4
 NAtoms=    6 NActive=    6 NUniq=    5 SFac= 1.44D+00 NAtFMM=   60 NAOKFM=F Big=F
 Integral buffers will be    131072 words long.
 Raffenetti 2 integral format.
 Two-electron integral symmetry is turned on.
 Leave Link  301 at Sun May 15 14:13:25 2022, MaxMem=   134217728 cpu:               0.1 elap:               0.1
 (Enter /software/commercial/MERCURY/GAUSSIAN/SSE4/g16/l302.exe)
 NPDir=0 NMtPBC=     1 NCelOv=     1 NCel=       1 NClECP=     1 NCelD=      1
         NCelK=      1 NCelE2=     1 NClLst=     1 CellRange=     0.0.
 One-electron integrals computed using PRISM.
 One-electron integral symmetry used in STVInt
 NBasis=   184 RedAO= T EigKep=  6.22D-05  NBF=   115    69
 NBsUse=   184 1.00D-06 EigRej= -1.00D+00 NBFU=   115    69
 Precomputing XC quadrature grid using
 IXCGrd= 4 IRadAn=           5 IRanWt=          -1 IRanGd=           0 AccXCQ= 0.00D+00.
 Generated NRdTot=       0 NPtTot=           0 NUsed=           0 NTot=          32
 NSgBfM=   210   210   210   210   210 MxSgAt=     6 MxSgA2=     6.
 Leave Link  302 at Sun May 15 14:13:26 2022, MaxMem=   134217728 cpu:               0.2 elap:               0.2
 (Enter /software/commercial/MERCURY/GAUSSIAN/SSE4/g16/l303.exe)
 DipDrv:  MaxL=1.
 Leave Link  303 at Sun May 15 14:13:26 2022, MaxMem=   134217728 cpu:               0.1 elap:               0.0
 (Enter /software/commercial/MERCURY/GAUSSIAN/SSE4/g16/l401.exe)
 Initial guess from the checkpoint file:  "/home/thomasegg/AlcoholMixtureSpec/Gau-1083106.chk"
 B after Tr=    -0.000000   -0.000000   -0.000000
         Rot=    1.000000   -0.000000    0.000000   -0.000854 Ang=  -0.10 deg.
 Guess basis will be translated and rotated to current coordinates.
 JPrj=2 DoOrth=T DoCkMO=T.
 Initial guess orbital symmetries:
       Occupied  (A') (A') (A') (A') (A') (A") (A') (A') (A")
       Virtual   (A') (A') (A") (A') (A') (A') (A') (A") (A') (A')
                 (A") (A') (A") (A') (A') (A") (A') (A') (A") (A')
                 (A") (A') (A") (A') (A') (A') (A") (A') (A') (A')
                 (A") (A') (A') (A") (A") (A') (A') (A') (A') (A")
                 (A') (A") (A') (A") (A') (A") (A") (A') (A") (A')
                 (A') (A") (A') (A') (A') (A') (A") (A') (A') (A")
                 (A") (A') (A") (A") (A') (A') (A") (A') (A') (A')
                 (A") (A') (A') (A") (A") (A') (A') (A") (A") (A')
                 (A') (A') (A") (A') (A") (A') (A") (A') (A") (A')
                 (A') (A") (A') (A') (A") (A') (A") (A') (A') (A')
                 (A") (A') (A') (A") (A") (A') (A') (A') (A') (A")
                 (A') (A") (A") (A') (A") (A') (A') (A") (A') (A')
                 (A") (A') (A") (A') (A") (A") (A') (A') (A") (A')
                 (A") (A") (A') (A') (A') (A") (A") (A') (A') (A')
                 (A') (A") (A') (A") (A') (A") (A') (A') (A") (A')
                 (A') (A") (A") (A') (A') (A") (A') (A') (A') (A')
                 (A") (A") (A') (A") (A') (A") (A") (A') (A') (A")
                 (A') (A') (A') (A') (A')
 The electronic state of the initial guess is 1-A'.
 Leave Link  401 at Sun May 15 14:13:26 2022, MaxMem=   134217728 cpu:               0.1 elap:               0.2
 (Enter /software/commercial/MERCURY/GAUSSIAN/SSE4/g16/l502.exe)
 Integral symmetry usage will be decided dynamically.
 Closed shell SCF:
 Using DIIS extrapolation, IDIIS=  1040.
 NGot=   134217728 LenX=   134125808 LenY=   134081267
 Requested convergence on RMS density matrix=1.00D-08 within 128 cycles.
 Requested convergence on MAX density matrix=1.00D-06.
 Requested convergence on             energy=1.00D-06.
 No special actions if energy rises.
 Fock matrices will be formed incrementally for  20 cycles.

 Cycle   1  Pass 1  IDiag  1:
 FoFJK:  IHMeth= 1 ICntrl=       0 DoSepK=F KAlg= 0 I1Cent=           0 FoldK=F
 IRaf= 990000000 NMat=       1 IRICut=       1 DoRegI=T DoRafI=F ISym2E= 1 IDoP0=0 IntGTp=1.
 FoFCou: FMM=F IPFlag=           0 FMFlag=      100000 FMFlg1=           0
         NFxFlg=           0 DoJE=F BraDBF=F KetDBF=F FulRan=T
         wScrn=  0.000000 ICntrl=         0 IOpCl=  0 I1Cent=           0 NGrid=           0
         NMat0=    1 NMatS0=      1 NMatT0=    0 NMatD0=    1 NMtDS0=    0 NMtDT0=    0
 Petite list used in FoFCou.
 E= -115.776740083563    
 DIIS: error= 3.34D-04 at cycle   1 NSaved=   1.
 NSaved= 1 IEnMin= 1 EnMin= -115.776740083563     IErMin= 1 ErrMin= 3.34D-04
 ErrMax= 3.34D-04  0.00D+00 EMaxC= 1.00D-01 BMatC= 1.78D-05 BMatP= 1.78D-05
 IDIUse=3 WtCom= 9.97D-01 WtEn= 3.34D-03
 Coeff-Com:  0.100D+01
 Coeff-En:   0.100D+01
 Coeff:      0.100D+01
 Gap=     0.278 Goal=   None    Shift=    0.000
 RMSDP=3.44D-05 MaxDP=1.27D-03              OVMax= 1.39D-03

 Cycle   2  Pass 1  IDiag  1:
 RMSU=  3.42D-05    CP:  1.00D+00
 E= -115.776753356674     Delta-E=       -0.000013273111 Rises=F Damp=F
 DIIS: error= 1.03D-04 at cycle   2 NSaved=   2.
 NSaved= 2 IEnMin= 2 EnMin= -115.776753356674     IErMin= 2 ErrMin= 1.03D-04
 ErrMax= 1.03D-04  0.00D+00 EMaxC= 1.00D-01 BMatC= 1.97D-06 BMatP= 1.78D-05
 IDIUse=3 WtCom= 9.99D-01 WtEn= 1.03D-03
 Coeff-Com:  0.146D+00 0.854D+00
 Coeff-En:   0.000D+00 0.100D+01
 Coeff:      0.146D+00 0.854D+00
 Gap=     0.269 Goal=   None    Shift=    0.000
 RMSDP=8.18D-06 MaxDP=2.20D-04 DE=-1.33D-05 OVMax= 7.31D-04

 Cycle   3  Pass 1  IDiag  1:
 RMSU=  7.94D-06    CP:  1.00D+00  1.05D+00
 E= -115.776752943681     Delta-E=        0.000000412992 Rises=F Damp=F
 DIIS: error= 1.12D-04 at cycle   3 NSaved=   3.
 NSaved= 3 IEnMin= 2 EnMin= -115.776753356674     IErMin= 2 ErrMin= 1.03D-04
 ErrMax= 1.12D-04  0.00D+00 EMaxC= 1.00D-01 BMatC= 2.62D-06 BMatP= 1.97D-06
 IDIUse=3 WtCom= 4.86D-01 WtEn= 5.14D-01
 Coeff-Com:  0.488D-02 0.536D+00 0.459D+00
 Coeff-En:   0.000D+00 0.557D+00 0.443D+00
 Coeff:      0.237D-02 0.547D+00 0.451D+00
 Gap=     0.270 Goal=   None    Shift=    0.000
 RMSDP=4.20D-06 MaxDP=1.19D-04 DE= 4.13D-07 OVMax= 3.70D-04

 Cycle   4  Pass 1  IDiag  1:
 RMSU=  1.51D-06    CP:  1.00D+00  1.03D+00  5.13D-01
 E= -115.776754703037     Delta-E=       -0.000001759356 Rises=F Damp=F
 DIIS: error= 1.08D-05 at cycle   4 NSaved=   4.
 NSaved= 4 IEnMin= 4 EnMin= -115.776754703037     IErMin= 4 ErrMin= 1.08D-05
 ErrMax= 1.08D-05  0.00D+00 EMaxC= 1.00D-01 BMatC= 2.53D-08 BMatP= 1.97D-06
 IDIUse=1 WtCom= 1.00D+00 WtEn= 0.00D+00
 Coeff-Com: -0.592D-02 0.154D+00 0.157D+00 0.695D+00
 Coeff:     -0.592D-02 0.154D+00 0.157D+00 0.695D+00
 Gap=     0.270 Goal=   None    Shift=    0.000
 RMSDP=5.77D-07 MaxDP=1.89D-05 DE=-1.76D-06 OVMax= 5.01D-05

 Cycle   5  Pass 1  IDiag  1:
 RMSU=  4.37D-07    CP:  1.00D+00  1.04D+00  5.13D-01  7.67D-01
 E= -115.776754717762     Delta-E=       -0.000000014724 Rises=F Damp=F
 DIIS: error= 4.89D-06 at cycle   5 NSaved=   5.
 NSaved= 5 IEnMin= 5 EnMin= -115.776754717762     IErMin= 5 ErrMin= 4.89D-06
 ErrMax= 4.89D-06  0.00D+00 EMaxC= 1.00D-01 BMatC= 4.17D-09 BMatP= 2.53D-08
 IDIUse=1 WtCom= 1.00D+00 WtEn= 0.00D+00
 Coeff-Com: -0.265D-02 0.389D-01 0.464D-01 0.339D+00 0.579D+00
 Coeff:     -0.265D-02 0.389D-01 0.464D-01 0.339D+00 0.579D+00
 Gap=     0.270 Goal=   None    Shift=    0.000
 RMSDP=2.11D-07 MaxDP=8.50D-06 DE=-1.47D-08 OVMax= 1.92D-05

 Cycle   6  Pass 1  IDiag  1:
 RMSU=  1.15D-07    CP:  1.00D+00  1.04D+00  5.21D-01  8.03D-01  6.48D-01
 E= -115.776754721534     Delta-E=       -0.000000003772 Rises=F Damp=F
 DIIS: error= 6.23D-07 at cycle   6 NSaved=   6.
 NSaved= 6 IEnMin= 6 EnMin= -115.776754721534     IErMin= 6 ErrMin= 6.23D-07
 ErrMax= 6.23D-07  0.00D+00 EMaxC= 1.00D-01 BMatC= 7.88D-11 BMatP= 4.17D-09
 IDIUse=1 WtCom= 1.00D+00 WtEn= 0.00D+00
 Coeff-Com: -0.254D-03-0.177D-02 0.847D-03 0.409D-01 0.161D+00 0.799D+00
 Coeff:     -0.254D-03-0.177D-02 0.847D-03 0.409D-01 0.161D+00 0.799D+00
 Gap=     0.270 Goal=   None    Shift=    0.000
 RMSDP=3.18D-08 MaxDP=8.43D-07 DE=-3.77D-09 OVMax= 2.70D-06

 Cycle   7  Pass 1  IDiag  1:
 RMSU=  2.32D-08    CP:  1.00D+00  1.04D+00  5.21D-01  8.09D-01  6.84D-01
                    CP:  8.96D-01
 E= -115.776754721605     Delta-E=       -0.000000000071 Rises=F Damp=F
 DIIS: error= 1.08D-07 at cycle   7 NSaved=   7.
 NSaved= 7 IEnMin= 7 EnMin= -115.776754721605     IErMin= 7 ErrMin= 1.08D-07
 ErrMax= 1.08D-07  0.00D+00 EMaxC= 1.00D-01 BMatC= 1.16D-12 BMatP= 7.88D-11
 IDIUse=1 WtCom= 1.00D+00 WtEn= 0.00D+00
 Coeff-Com: -0.395D-05-0.133D-02-0.973D-03 0.128D-02 0.243D-01 0.189D+00
 Coeff-Com:  0.788D+00
 Coeff:     -0.395D-05-0.133D-02-0.973D-03 0.128D-02 0.243D-01 0.189D+00
 Coeff:      0.788D+00
 Gap=     0.270 Goal=   None    Shift=    0.000
 RMSDP=4.99D-09 MaxDP=1.32D-07 DE=-7.09D-11 OVMax= 4.18D-07

 SCF Done:  E(RB3LYP) =  -115.776754722     A.U. after    7 cycles
            NFock=  7  Conv=0.50D-08     -V/T= 2.0063
 KE= 1.150473573162D+02 PE=-3.519251289492D+02 EE= 8.084371770352D+01
 Leave Link  502 at Sun May 15 14:14:01 2022, MaxMem=   134217728 cpu:              34.8 elap:              34.9
 (Enter /software/commercial/MERCURY/GAUSSIAN/SSE4/g16/l701.exe)
 ... and contract with generalized density number  0.
 Compute integral first derivatives.
 Leave Link  701 at Sun May 15 14:14:01 2022, MaxMem=   134217728 cpu:               0.2 elap:               0.2
 (Enter /software/commercial/MERCURY/GAUSSIAN/SSE4/g16/l702.exe)
 L702 exits ... SP integral derivatives will be done elsewhere.
 Leave Link  702 at Sun May 15 14:14:01 2022, MaxMem=   134217728 cpu:               0.0 elap:               0.0
 (Enter /software/commercial/MERCURY/GAUSSIAN/SSE4/g16/l703.exe)
 Integral derivatives from FoFJK, PRISM(SPDF).
 Compute integral first derivatives, UseDBF=F ICtDFT=           0.
 Calling FoFJK, ICntrl=      2127 FMM=F ISym2X=1 I1Cent= 0 IOpClX= 0 NMat=1 NMatS=1 NMatT=0.
 FoFJK:  IHMeth= 1 ICntrl=    2127 DoSepK=F KAlg= 0 I1Cent=           0 FoldK=F
 IRaf=         0 NMat=       1 IRICut=       1 DoRegI=T DoRafI=F ISym2E= 1 IDoP0=0 IntGTp=1.
 FoFCou: FMM=F IPFlag=           0 FMFlag=      100000 FMFlg1=         800
         NFxFlg=           0 DoJE=F BraDBF=F KetDBF=F FulRan=T
         wScrn=  0.000000 ICntrl=      2127 IOpCl=  0 I1Cent=           0 NGrid=           0
         NMat0=    1 NMatS0=      1 NMatT0=    0 NMatD0=    1 NMtDS0=    0 NMtDT0=    0
 Petite list used in FoFCou.
 Leave Link  703 at Sun May 15 14:14:20 2022, MaxMem=   134217728 cpu:              18.7 elap:              18.8
 (Enter /software/commercial/MERCURY/GAUSSIAN/SSE4/g16/l716.exe)
 Dipole        = 5.30886288D-01 3.79667242D-01 0.00000000D+00
 ***** Axes restored to original set *****
 -------------------------------------------------------------------
 Center     Atomic                   Forces (Hartrees/Bohr)
 Number     Number              X              Y              Z
 -------------------------------------------------------------------
      1        6           0.000908960   -0.000597471    0.000000000
      2        8          -0.000630519   -0.000343731    0.000000000
      3        1           0.000666951    0.000844784    0.000000000
      4        1          -0.000199102    0.000076034   -0.000000225
      5        1          -0.000199102    0.000076034    0.000000225
      6        1          -0.000547188   -0.000055650   -0.000000000
 -------------------------------------------------------------------
 Cartesian Forces:  Max     0.000908960 RMS     0.000424966
 Leave Link  716 at Sun May 15 14:14:20 2022, MaxMem=   134217728 cpu:               0.0 elap:               0.0
 (Enter /software/commercial/MERCURY/GAUSSIAN/SSE4/g16/l103.exe)

 GradGradGradGradGradGradGradGradGradGradGradGradGradGradGradGradGradGrad
 Berny optimization.
 Using GEDIIS/GDIIS optimizer.
 FormGI is forming the generalized inverse of G from B-inverse, IUseBI=4.
 Internal  Forces:  Max     0.001027020 RMS     0.000391968
 Search for a local minimum.
 Step number   3 out of a maximum of   25
 All quantities printed in internal units (Hartrees-Bohrs-Radians)
 RMS Force = .39197D-03 SwitMx=.10000D-02 MixMth= 2
 Mixed Optimization -- En-DIIS/RFO-DIIS
 Update second derivatives using D2CorX and points    1    2    3
 DE= -2.68D-05 DEPred=-3.57D-05 R= 7.49D-01
 TightC=F SS=  1.41D+00  RLast= 1.66D-02 DXNew= 5.3728D-01 4.9708D-02
 Trust test= 7.49D-01 RLast= 1.66D-02 DXMaxT set to 3.19D-01
 The second derivative matrix:
                          R1        R2        R3        R4        R5
           R1           0.37265
           R2           0.00104   0.34279
           R3           0.00104   0.00045   0.34279
           R4           0.00221   0.00087   0.00087   0.34819
           R5          -0.02340   0.00323   0.00323   0.00747   0.51157
           A1           0.00513   0.00026   0.00026   0.00057   0.00775
           A2           0.00513   0.00026   0.00026   0.00057   0.00775
           A3           0.00884   0.00282   0.00282   0.00532   0.01947
           A4           0.00174  -0.00033  -0.00033  -0.00073  -0.00190
           A5          -0.01089  -0.00154  -0.00154  -0.00294  -0.01738
           A6          -0.01089  -0.00154  -0.00154  -0.00294  -0.01738
           A7           0.03765   0.00324   0.00324   0.00515   0.02919
           D1           0.01273   0.00141   0.00141   0.00266   0.01807
           D2          -0.01273  -0.00141  -0.00141  -0.00266  -0.01807
           D3           0.00000   0.00000   0.00000   0.00000   0.00000
                          A1        A2        A3        A4        A5
           A1           0.15973
           A2          -0.00027   0.15973
           A3           0.00108   0.00108   0.17778
           A4          -0.00067  -0.00067  -0.00199   0.16018
           A5           0.00007   0.00007  -0.00918   0.00166   0.16374
           A6           0.00007   0.00007  -0.00918   0.00166   0.00374
           A7          -0.00375  -0.00375   0.02066  -0.00290  -0.00488
           D1          -0.00045  -0.00045   0.00822  -0.00171  -0.00282
           D2           0.00045   0.00045  -0.00822   0.00171   0.00282
           D3          -0.00000  -0.00000   0.00000  -0.00000  -0.00000
                          A6        A7        D1        D2        D3
           A6           0.16374
           A7          -0.00488   0.17563
           D1          -0.00282   0.00229   0.01434
           D2           0.00282  -0.00229  -0.00179   0.01434
           D3          -0.00000   0.00000   0.00000  -0.00000   0.01255
 ITU=  1  1  0
 Use linear search instead of GDIIS.
     Eigenvalues ---    0.01255   0.10053   0.10507   0.15240   0.16000
     Eigenvalues ---    0.16427   0.19043   0.34234   0.34285   0.34754
     Eigenvalues ---    0.38170   0.52068
 RFO step:  Lambda=-3.66480984D-06 EMin= 1.25527411D-02
 Quartic linear search produced a step of -0.20079.
 Iteration  1 RMS(Cart)=  0.00168947 RMS(Int)=  0.00000196
 Iteration  2 RMS(Cart)=  0.00000162 RMS(Int)=  0.00000087
 Iteration  3 RMS(Cart)=  0.00000000 RMS(Int)=  0.00000087
 ITry= 1 IFail=0 DXMaxC= 3.85D-03 DCOld= 1.00D+10 DXMaxT= 3.19D-01 DXLimC= 3.00D+00 Rises=F
 ClnCor:  largest displacement from symmetrization is 2.70D-13 for atom     5.
 Variable       Old X    -DE/DX   Delta X   Delta X   Delta X     New X
                                 (Linear)    (Quad)   (Total)
    R1        2.69132   0.00002   0.00186  -0.00222  -0.00036   2.69097
    R2        2.06691   0.00011   0.00016   0.00006   0.00022   2.06713
    R3        2.06691   0.00011   0.00016   0.00006   0.00022   2.06713
    R4        2.05540   0.00023   0.00026   0.00023   0.00049   2.05589
    R5        1.81374   0.00103   0.00140   0.00012   0.00153   1.81527
    A1        1.95389   0.00007  -0.00043   0.00075   0.00031   1.95421
    A2        1.95389   0.00007  -0.00043   0.00075   0.00031   1.95421
    A3        1.85885   0.00073   0.00199   0.00152   0.00351   1.86236
    A4        1.90550  -0.00029  -0.00038  -0.00149  -0.00187   1.90363
    A5        1.89476  -0.00029  -0.00035  -0.00077  -0.00112   1.89363
    A6        1.89476  -0.00029  -0.00035  -0.00077  -0.00112   1.89363
    A7        1.89952   0.00058   0.00034   0.00226   0.00260   1.90212
    D1       -1.07315   0.00014   0.00057   0.00042   0.00099  -1.07216
    D2        1.07315  -0.00014  -0.00057  -0.00042  -0.00099   1.07216
    D3        3.14159  -0.00000   0.00000  -0.00000   0.00000   3.14159
         Item               Value     Threshold  Converged?
 Maximum Force            0.001027     0.000450     NO 
 RMS     Force            0.000392     0.000300     NO 
 Maximum Displacement     0.003848     0.001800     NO 
 RMS     Displacement     0.001689     0.001200     NO 
 Predicted change in Energy=-3.676757D-06
 Lowest energy point so far.  Saving SCF results.
 GradGradGradGradGradGradGradGradGradGradGradGradGradGradGradGradGradGrad

[...]
                                                                                                  X                        X         
                                                                                                  X                                  
                                                                                                  X                                  
                                                                                                  X                                  
 
 ***** Axes restored to original set *****
 -------------------------------------------------------------------
 Center     Atomic                   Forces (Hartrees/Bohr)
 Number     Number              X              Y              Z
 -------------------------------------------------------------------
      1        6           0.000525980   -0.000065659   -0.000000000
      2        8          -0.000307933   -0.000118623   -0.000000000
      3        1           0.000071969    0.000141194    0.000000000
      4        1          -0.000101969    0.000031283    0.000035485
      5        1          -0.000101969    0.000031283   -0.000035485
      6        1          -0.000086078   -0.000019479    0.000000000
 -------------------------------------------------------------------
 Cartesian Forces:  Max     0.000525980 RMS     0.000157768
 Force constants in Cartesian coordinates: 
                1             2             3             4             5 
      1  0.451312D+00
      2  0.136514D-01  0.598462D+00
      3  0.000000D+00  0.000000D+00  0.555950D+00
      4 -0.225156D+00  0.293132D-01  0.000000D+00  0.408300D+00
      5 -0.164676D-01 -0.920698D-01  0.000000D+00  0.144382D+00  0.544296D+00
      6  0.000000D+00  0.000000D+00 -0.591097D-01  0.000000D+00  0.000000D+00
      7 -0.208031D-01 -0.433685D-01  0.000000D+00 -0.941349D-01 -0.122473D+00
      8  0.857033D-02  0.175514D-02  0.000000D+00 -0.175917D+00 -0.466214D+00
      9  0.000000D+00  0.000000D+00 -0.115397D-02  0.000000D+00  0.000000D+00
     10 -0.700820D-01  0.318285D-01  0.596576D-01 -0.320742D-01  0.166173D-01
     11  0.352327D-01 -0.106450D+00 -0.938947D-01  0.267771D-02  0.439083D-02
     12  0.623269D-01 -0.951366D-01 -0.222300D+00  0.458611D-02  0.302632D-02
     13 -0.700820D-01  0.318285D-01 -0.596576D-01 -0.320742D-01  0.166173D-01
     14  0.352327D-01 -0.106450D+00  0.938947D-01  0.267771D-02  0.439083D-02
     15 -0.623269D-01  0.951366D-01 -0.222300D+00 -0.458611D-02 -0.302632D-02
     16 -0.651897D-01 -0.632531D-01  0.000000D+00 -0.248609D-01 -0.386755D-01
     17 -0.762195D-01 -0.295247D+00  0.000000D+00 -0.313326D-02  0.520597D-02
     18  0.000000D+00  0.000000D+00 -0.510867D-01  0.000000D+00  0.000000D+00
                6             7             8             9            10 
      6  0.430664D-01
      7  0.000000D+00  0.119805D+00
      8  0.000000D+00  0.164313D+00  0.460771D+00
      9 -0.215384D-02  0.000000D+00  0.000000D+00  0.230041D-02
     10  0.282117D-01  0.136216D-02  0.145324D-02  0.367585D-03  0.901030D-01
     11  0.113483D-02 -0.951113D-04  0.593014D-03  0.125915D-02 -0.421349D-01
     12  0.810181D-02  0.959248D-03  0.114015D-03  0.375033D-03 -0.736064D-01
     13 -0.282117D-01  0.136216D-02  0.145324D-02 -0.367585D-03  0.586719D-02
     14 -0.113483D-02 -0.951113D-04  0.593014D-03 -0.125915D-02 -0.485811D-02
     15  0.810181D-02 -0.959248D-03 -0.114015D-03  0.375033D-03 -0.685707D-02
     16  0.000000D+00 -0.759089D-02  0.126788D-03  0.000000D+00  0.482380D-02
     17  0.000000D+00  0.171857D-02  0.250163D-02  0.000000D+00 -0.290609D-02
     18  0.199349D-02  0.000000D+00  0.000000D+00  0.257327D-03 -0.777344D-02
               11            12            13            14            15 
     11  0.106146D+00
     12  0.104880D+00  0.234705D+00
     13 -0.485811D-02  0.685707D-02  0.901030D-01
     14  0.818097D-02 -0.131853D-01 -0.421349D-01  0.106146D+00
     15  0.131853D-01 -0.218247D-01  0.736064D-01 -0.104880D+00  0.234705D+00
     16  0.917770D-02 -0.112300D-02  0.482380D-02  0.917770D-02  0.112300D-02
     17 -0.128606D-01  0.301905D-03 -0.290609D-02 -0.128606D-01 -0.301905D-03
     18 -0.265641D-01  0.942663D-03  0.777344D-02  0.265641D-01  0.942663D-03
               16            17            18 
     16  0.879938D-01
     17  0.834464D-01  0.313261D+00
     18  0.000000D+00  0.000000D+00  0.469506D-01
 FormGI is forming the generalized inverse of G from B-inverse, IUseBI=4.
 Force constants in internal coordinates: 
                1             2             3             4             5 
      1  0.338806D+00
      2  0.167536D-01  0.324068D+00
      3  0.167536D-01  0.472121D-02  0.324068D+00
      4  0.115539D-01  0.384333D-02  0.384333D-02  0.340790D+00
      5 -0.199275D-02 -0.576832D-04 -0.576832D-04 -0.196392D-02  0.526915D+00
      6  0.266098D-01 -0.193107D-02 -0.487332D-02 -0.484229D-02 -0.348445D-02
      7  0.266098D-01 -0.487332D-02 -0.193107D-02 -0.484229D-02 -0.348445D-02
      8  0.301691D-01 -0.454363D-02 -0.454363D-02  0.239045D-02  0.665953D-02
      9 -0.285440D-01  0.842175D-02  0.842175D-02 -0.467965D-02  0.122245D-02
     10 -0.285981D-01  0.825653D-02 -0.537614D-02  0.648019D-02 -0.336779D-03
     11 -0.285981D-01 -0.537614D-02  0.825653D-02  0.648019D-02 -0.336779D-03
     12  0.484522D-01  0.525574D-03  0.525574D-03  0.292645D-02  0.151688D-01
     13 -0.104072D-02  0.477017D-03 -0.645408D-02  0.664800D-02  0.178154D-02
     14  0.104072D-02  0.645408D-02 -0.477017D-03 -0.664800D-02 -0.178154D-02
     15  0.000000D+00 -0.564672D-02  0.564672D-02  0.000000D+00  0.000000D+00
                6             7             8             9            10 
      6  0.136114D+00
      7 -0.332732D-01  0.136114D+00
      8 -0.294350D-01 -0.294350D-01  0.137867D+00
      9 -0.397649D-01 -0.397649D-01 -0.123884D-02  0.721468D-01
     10 -0.355395D-01 -0.166772D-02 -0.384266D-01  0.440829D-02  0.706681D-01
     11 -0.166772D-02 -0.355395D-01 -0.384266D-01  0.440829D-02  0.380960D-02
     12 -0.534212D-02 -0.534212D-02  0.205026D-01  0.122662D-02 -0.544025D-02
     13 -0.372695D-02 -0.204323D-01  0.226148D-01 -0.177355D-01  0.215710D-01
     14  0.204323D-01  0.372695D-02 -0.226148D-01  0.177355D-01 -0.223746D-03
     15 -0.186038D-01  0.186038D-01  0.000000D+00  0.000000D+00 -0.204578D-01
               11            12            13            14            15 
     11  0.706681D-01
     12 -0.544025D-02  0.177117D+00
     13  0.223746D-03  0.315491D-02  0.272202D-01
     14 -0.215710D-01 -0.315491D-02 -0.138781D-01  0.272202D-01
     15  0.204578D-01  0.000000D+00 -0.109936D-01 -0.109936D-01  0.243201D-01
 Leave Link  716 at Sun May 15 14:21:54 2022, MaxMem=   134217728 cpu:               0.0 elap:               0.0
 (Enter /software/commercial/MERCURY/GAUSSIAN/SSE4/g16/l103.exe)

 GradGradGradGradGradGradGradGradGradGradGradGradGradGradGradGradGradGrad
 Berny optimization.
 Red2BG is reusing G-inverse.
 Internal  Forces:  Max     0.000236621 RMS     0.000094543
 Search for a local minimum.
 Step number   1 out of a maximum of    2
 All quantities printed in internal units (Hartrees-Bohrs-Radians)
 Second derivative matrix not updated -- analytic derivatives used.
 The second derivative matrix:
                          R1        R2        R3        R4        R5
           R1           0.33881
           R2           0.01675   0.32407
           R3           0.01675   0.00472   0.32407
           R4           0.01155   0.00384   0.00384   0.34079
           R5          -0.00199  -0.00006  -0.00006  -0.00196   0.52692
           A1           0.02661  -0.00193  -0.00487  -0.00484  -0.00348
           A2           0.02661  -0.00487  -0.00193  -0.00484  -0.00348
           A3           0.03017  -0.00454  -0.00454   0.00239   0.00666
           A4          -0.02854   0.00842   0.00842  -0.00468   0.00122
           A5          -0.02860   0.00826  -0.00538   0.00648  -0.00034
           A6          -0.02860  -0.00538   0.00826   0.00648  -0.00034
           A7           0.04845   0.00053   0.00053   0.00293   0.01517
           D1          -0.00104   0.00048  -0.00645   0.00665   0.00178
           D2           0.00104   0.00645  -0.00048  -0.00665  -0.00178
           D3          -0.00000  -0.00565   0.00565   0.00000   0.00000
                          A1        A2        A3        A4        A5
           A1           0.13611
           A2          -0.03327   0.13611
           A3          -0.02944  -0.02944   0.13787
           A4          -0.03976  -0.03976  -0.00124   0.07215
           A5          -0.03554  -0.00167  -0.03843   0.00441   0.07067
           A6          -0.00167  -0.03554  -0.03843   0.00441   0.00381
           A7          -0.00534  -0.00534   0.02050   0.00123  -0.00544
           D1          -0.00373  -0.02043   0.02261  -0.01774   0.02157
           D2           0.02043   0.00373  -0.02261   0.01774  -0.00022
           D3          -0.01860   0.01860   0.00000   0.00000  -0.02046
                          A6        A7        D1        D2        D3
           A6           0.07067
           A7          -0.00544   0.17712
           D1           0.00022   0.00315   0.02722
           D2          -0.02157  -0.00315  -0.01388   0.02722
           D3           0.02046  -0.00000  -0.01099  -0.01099   0.02432
 ITU=  0
     Eigenvalues ---    0.00232   0.08770   0.08782   0.12737   0.15335
     Eigenvalues ---    0.18244   0.19710   0.32067   0.32441   0.33944
     Eigenvalues ---    0.38361   0.52786
 Angle between quadratic step and forces=  25.86 degrees.
 Linear search not attempted -- first point.
 Iteration  1 RMS(Cart)=  0.00039057 RMS(Int)=  0.00000028
 Iteration  2 RMS(Cart)=  0.00000023 RMS(Int)=  0.00000017
 ITry= 1 IFail=0 DXMaxC= 1.02D-03 DCOld= 1.00D+10 DXMaxT= 3.00D-01 DXLimC= 3.00D+00 Rises=F
 ClnCor:  largest displacement from symmetrization is 2.19D-12 for atom     5.
 Variable       Old X    -DE/DX   Delta X   Delta X   Delta X     New X
                                 (Linear)    (Quad)   (Total)
    R1        2.69097  -0.00024   0.00000  -0.00116  -0.00116   2.68981
    R2        2.06713   0.00008   0.00000   0.00035   0.00035   2.06748
    R3        2.06713   0.00008   0.00000   0.00035   0.00035   2.06748
    R4        2.05589   0.00005   0.00000   0.00019   0.00019   2.05608
    R5        1.81527   0.00016   0.00000   0.00029   0.00029   1.81555
    A1        1.95421   0.00008   0.00000   0.00073   0.00073   1.95494
    A2        1.95421   0.00008   0.00000   0.00073   0.00073   1.95494
    A3        1.86236   0.00008   0.00000   0.00070   0.00070   1.86306
    A4        1.90363  -0.00009   0.00000  -0.00090  -0.00090   1.90273
    A5        1.89363  -0.00007   0.00000  -0.00066  -0.00066   1.89297
    A6        1.89363  -0.00007   0.00000  -0.00066  -0.00066   1.89297
    A7        1.90212   0.00003   0.00000   0.00038   0.00038   1.90250
    D1       -1.07216   0.00000   0.00000   0.00005   0.00005  -1.07211
    D2        1.07216  -0.00000   0.00000  -0.00005  -0.00005   1.07211
    D3        3.14159  -0.00000   0.00000  -0.00000   0.00000   3.14159
         Item               Value     Threshold  Converged?
 Maximum Force            0.000237     0.000450     YES
 RMS     Force            0.000095     0.000300     YES
 Maximum Displacement     0.001020     0.001800     YES
 RMS     Displacement     0.000391     0.001200     YES
 Predicted change in Energy=-3.725011D-07
 Optimization completed.
    -- Stationary point found.
                           ----------------------------
                           !   Optimized Parameters   !
                           ! (Angstroms and Degrees)  !
 --------------------------                            --------------------------
 ! Name  Definition              Value          Derivative Info.                !
 --------------------------------------------------------------------------------
 ! R1    R(1,2)                  1.424          -DE/DX =   -0.0002              !
 ! R2    R(1,4)                  1.0939         -DE/DX =    0.0001              !
 ! R3    R(1,5)                  1.0939         -DE/DX =    0.0001              !
 ! R4    R(1,6)                  1.0879         -DE/DX =    0.0                 !
 ! R5    R(2,3)                  0.9606         -DE/DX =    0.0002              !
 ! A1    A(2,1,4)              111.9678         -DE/DX =    0.0001              !
 ! A2    A(2,1,5)              111.9678         -DE/DX =    0.0001              !
 ! A3    A(2,1,6)              106.7054         -DE/DX =    0.0001              !
 ! A4    A(4,1,5)              109.07           -DE/DX =   -0.0001              !
 ! A5    A(4,1,6)              108.4972         -DE/DX =   -0.0001              !
 ! A6    A(5,1,6)              108.4972         -DE/DX =   -0.0001              !
 ! A7    A(1,2,3)              108.9833         -DE/DX =    0.0                 !
 ! D1    D(4,1,2,3)            -61.4302         -DE/DX =    0.0                 !
 ! D2    D(5,1,2,3)             61.4302         -DE/DX =    0.0                 !
 ! D3    D(6,1,2,3)            180.0            -DE/DX =    0.0                 !
 --------------------------------------------------------------------------------
 GradGradGradGradGradGradGradGradGradGradGradGradGradGradGradGradGradGrad

 Leave Link  103 at Sun May 15 14:21:54 2022, MaxMem=   134217728 cpu:               0.0 elap:               0.0
 (Enter /software/commercial/MERCURY/GAUSSIAN/SSE4/g16/l9999.exe)

 ----------------------------------------------------------------------

 Electric dipole moment (input orientation):
 (Debye = 10**-18 statcoulomb cm , SI units = C m)
                  (au)            (Debye)         (10**-30 SI)
   Tot        0.651993D+00      0.165720D+01      0.552783D+01
   x         -0.359702D+00     -0.914271D+00     -0.304968D+01
   y          0.543792D+00      0.138218D+01      0.461046D+01
   z          0.000000D+00      0.000000D+00      0.000000D+00

 Dipole polarizability, Alpha (input orientation).
 (esu units = cm**3 , SI units = C**2 m**2 J**-1)
 Alpha(0;0):
               (au)            (10**-24 esu)      (10**-40 SI)
   iso        0.216289D+02      0.320508D+01      0.356613D+01
   aniso      0.345057D+01      0.511321D+00      0.568922D+00
   xx         0.238304D+02      0.353130D+01      0.392910D+01
   yx         0.506988D+00      0.751279D-01      0.835910D-01
   yy         0.208057D+02      0.308308D+01      0.343039D+01
   zx         0.000000D+00      0.000000D+00      0.000000D+00
   zy         0.000000D+00      0.000000D+00      0.000000D+00
   zz         0.202508D+02      0.300085D+01      0.333890D+01

 ----------------------------------------------------------------------

 Dipole orientation:
     6          0.03989924          0.02639213          0.01274816
     8          1.86800657          1.23562935         -1.54836537
     1          3.09971558          2.05036728         -0.49276548
     1          0.88700608         -1.43188585          1.20809771
     1         -0.97068046          1.37653779          1.20809771
     1         -1.31434192         -0.86939708         -1.24830853

 Electric dipole moment (dipole orientation):
 (Debye = 10**-18 statcoulomb cm , SI units = C m)
                  (au)            (Debye)         (10**-30 SI)
   Tot        0.651993D+00      0.165720D+01      0.552783D+01
   x          0.000000D+00      0.000000D+00      0.000000D+00
   y          0.000000D+00      0.000000D+00      0.000000D+00
   z          0.651993D+00      0.165720D+01      0.552783D+01

 Dipole polarizability, Alpha (dipole orientation).
 (esu units = cm**3 , SI units = C**2 m**2 J**-1)
 Alpha(0;0):
               (au)            (10**-24 esu)      (10**-40 SI)
   iso        0.216289D+02      0.320508D+01      0.356613D+01
   aniso      0.345057D+01      0.511321D+00      0.568922D+00
   xx         0.224250D+02      0.332304D+01      0.369739D+01
   yx         0.143820D+01      0.213119D+00      0.237127D+00
   yy         0.212021D+02      0.314183D+01      0.349575D+01
   zx        -0.995371D+00     -0.147499D+00     -0.164115D+00
   zy        -0.658408D+00     -0.975660D-01     -0.108557D+00
   zz         0.212597D+02      0.315037D+01      0.350526D+01

 ----------------------------------------------------------------------
 Unable to Open any file for archive entry.
 1\1\GINC-SKYSTD01\Freq\RB3LYP\Aug-CC-pVTZ\C1H4O1\THOMASEGG\15-May-2022
 \0\\#P Geom=AllCheck Guess=TCheck SCRF=Check GenChk RB3LYP/Aug-CC-pVTZ
  Freq\\Methanol\\0,1\C,0.0173920085,0.0195926166,0.\O,1.4405436756,-0.
 0295163556,0.\H,1.7841591507,0.8675217107,0.\H,-0.3748370937,0.5185589
 747,0.8909308772\H,-0.3748370937,0.5185589747,-0.8909308772\H,-0.33108
 26474,-1.0110159211,0.\\Version=ES64L-G16RevC.01\State=1-A'\HF=-115.77
 67589\RMSD=9.196e-10\RMSF=1.578e-04\ZeroPoint=0.0510194\Thermal=0.0543
 911\ETot=-115.7223678\HTot=-115.7214237\GTot=-115.7485361\Dipole=-0.35
 9702,0.5437922,0.\DipoleDeriv=0.8332476,0.0016917,0.,-0.0027295,0.2446
 048,0.,0.,0.,0.3532072,-0.9656988,-0.0111847,0.,-0.0556172,-0.285734,0
 .,0.,0.,-0.5329963,0.2565054,-0.0006296,0.,0.0052421,0.1300894,0.,0.,0
 .,0.3342536,-0.0652084,0.0176987,0.0482353,0.0693452,0.0093467,-0.0900
 076,0.1047582,-0.0929831,-0.1116026,-0.0652084,0.0176987,-0.0482353,0.
 0693452,0.0093467,0.0900076,-0.1047582,0.0929831,-0.1116026,0.0063625,
 -0.0252749,0.,-0.0855859,-0.1076535,0.,0.,0.,0.0687409\Polar=23.830397
 ,0.506988,20.8056785,0.,0.,20.2507661\Quadrupole=-0.2168727,0.7999191,
 -0.5830463,1.6073667,0.,0.\PG=CS [SG(C1H2O1),X(H2)]\NImag=0\\0.4513122
 7,0.01365140,0.59846166,0.,0.,0.55594996,-0.22515552,0.02931317,0.,0.4
 0829963,-0.01646759,-0.09206979,0.,0.14438158,0.54429572,0.,0.,-0.0591
 0967,0.,0.,0.04306639,-0.02080306,-0.04336852,0.,-0.09413489,-0.122473
 12,0.,0.11980451,0.00857033,0.00175514,0.,-0.17591690,-0.46621356,0.,0
 .16431331,0.46077077,0.,0.,-0.00115397,0.,0.,-0.00215384,0.,0.,0.00230
 041,-0.07008199,0.03182855,0.05965761,-0.03207418,0.01661730,0.0282116
 7,0.00136216,0.00145324,0.00036758,0.09010302,0.03523270,-0.10644978,-
 0.09389474,0.00267771,0.00439083,0.00113483,-0.00009511,0.00059301,0.0
 0125915,-0.04213489,0.10614562,0.06232693,-0.09513658,-0.22229979,0.00
 458611,0.00302632,0.00810181,0.00095925,0.00011401,0.00037503,-0.07360
 635,0.10487959,0.23470495,-0.07008199,0.03182855,-0.05965761,-0.032074
 18,0.01661730,-0.02821167,0.00136216,0.00145324,-0.00036758,0.00586719
 ,-0.00485811,0.00685707,0.09010302,0.03523270,-0.10644978,0.09389474,0
 .00267771,0.00439083,-0.00113483,-0.00009511,0.00059301,-0.00125915,-0
 .00485811,0.00818097,-0.01318525,-0.04213489,0.10614562,-0.06232693,0.
 09513658,-0.22229979,-0.00458611,-0.00302632,0.00810181,-0.00095925,-0
 .00011401,0.00037503,-0.00685707,0.01318525,-0.02182467,0.07360635,-0.
 10487959,0.23470495,-0.06518970,-0.06325314,0.,-0.02486087,-0.03867547
 ,0.,-0.00759089,0.00012679,0.,0.00482380,0.00917770,-0.00112300,0.0048
 2380,0.00917770,0.00112300,0.08799385,-0.07621955,-0.29524744,0.,-0.00
 313326,0.00520597,0.,0.00171857,0.00250163,0.,-0.00290609,-0.01286065,
 0.00030191,-0.00290609,-0.01286065,-0.00030191,0.08344642,0.31326114,0
 .,0.,-0.05108675,0.,0.,0.00199349,0.,0.,0.00025733,-0.00777344,-0.0265
 6408,0.00094266,0.00777344,0.02656408,0.00094266,0.,0.,0.04695061\\-0.
 00052598,0.00006566,0.,0.00030793,0.00011862,0.,-0.00007197,-0.0001411
 9,0.,0.00010197,-0.00003128,-0.00003549,0.00010197,-0.00003128,0.00003
 549,0.00008608,0.00001948,0.\\\@
 The archive entry for this job was punched.


 At the touch of love, everyone becomes a poet.
                                -- Plato
 Job cpu time:       0 days  0 hours  6 minutes 41.7 seconds.
 Elapsed time:       0 days  0 hours  6 minutes 43.1 seconds.
 File lengths (MBytes):  RWF=     39 Int=      0 D2E=      0 Chk=      5 Scr=      2
 Normal termination of Gaussian 16 at Sun May 15 14:21:54 2022.
