 Entering Gaussian System, Link 0=g16
 Initial command:
 /software/commercial/MERCURY/GAUSSIAN/SSE4/g16/l1.exe "/home/thomasegg/AlcoholMixtureSpec/Gau-760609.inp" -scrdir="/home/thomasegg/AlcoholMixtureSpec/"
 Entering Link 1 = /software/commercial/MERCURY/GAUSSIAN/SSE4/g16/l1.exe PID=    760610.
  
 Copyright (c) 1988-2019, Gaussian, Inc.  All Rights Reserved.
  
 This is part of the Gaussian(R) 16 program.  It is based on
 the Gaussian(R) 09 system (copyright 2009, Gaussian, Inc.),
 the Gaussian(R) 03 system (copyright 2003, Gaussian, Inc.),
 the Gaussian(R) 98 system (copyright 1998, Gaussian, Inc.),
 the Gaussian(R) 94 system (copyright 1995, Gaussian, Inc.),
 the Gaussian 92(TM) system (copyright 1992, Gaussian, Inc.),
 the Gaussian 90(TM) system (copyright 1990, Gaussian, Inc.),
 the Gaussian 88(TM) system (copyright 1988, Gaussian, Inc.),
 the Gaussian 86(TM) system (copyright 1986, Carnegie Mellon
 University), and the Gaussian 82(TM) system (copyright 1983,
 Carnegie Mellon University). Gaussian is a federally registered
 trademark of Gaussian, Inc.
  
 This software contains proprietary and confidential information,
 including trade secrets, belonging to Gaussian, Inc.
  
 This software is provided under written license and may be
 used, copied, transmitted, or stored only in accord with that
 written license.
  
 The following legend is applicable only to US Government
 contracts under FAR:
  
                    RESTRICTED RIGHTS LEGEND
  
 Use, reproduction and disclosure by the US Government is
 subject to restrictions as set forth in subparagraphs (a)
 and (c) of the Commercial Computer Software - Restricted
 Rights clause in FAR 52.227-19.
  
 Gaussian, Inc.
 340 Quinnipiac St., Bldg. 40, Wallingford CT 06492
  
  
 ---------------------------------------------------------------
 Warning -- This program may not be used in any manner that
 competes with the business of Gaussian, Inc. or will provide
 assistance to any competitor of Gaussian, Inc.  The licensee
 of this program is prohibited from giving any competitor of
 Gaussian, Inc. access to this program.  By using this program,
 the user acknowledges that Gaussian, Inc. is engaged in the
 business of creating and licensing software in the field of
 computational chemistry and represents and warrants to the
 licensee that it is not a competitor of Gaussian, Inc. and that
 it will not use this program in any manner prohibited above.
 ---------------------------------------------------------------
  

 Cite this work as:
 Gaussian 16, Revision C.01,
 M. J. Frisch, G. W. Trucks, H. B. Schlegel, G. E. Scuseria, 
 M. A. Robb, J. R. Cheeseman, G. Scalmani, V. Barone, 
 G. A. Petersson, H. Nakatsuji, X. Li, M. Caricato, A. V. Marenich, 
 J. Bloino, B. G. Janesko, R. Gomperts, B. Mennucci, H. P. Hratchian, 
 J. V. Ortiz, A. F. Izmaylov, J. L. Sonnenberg, D. Williams-Young, 
 F. Ding, F. Lipparini, F. Egidi, J. Goings, B. Peng, A. Petrone, 
 T. Henderson, D. Ranasinghe, V. G. Zakrzewski, J. Gao, N. Rega, 
 G. Zheng, W. Liang, M. Hada, M. Ehara, K. Toyota, R. Fukuda, 
 J. Hasegawa, M. Ishida, T. Nakajima, Y. Honda, O. Kitao, H. Nakai, 
 T. Vreven, K. Throssell, J. A. Montgomery, Jr., J. E. Peralta, 
 F. Ogliaro, M. J. Bearpark, J. J. Heyd, E. N. Brothers, K. N. Kudin, 
 V. N. Staroverov, T. A. Keith, R. Kobayashi, J. Normand, 
 K. Raghavachari, A. P. Rendell, J. C. Burant, S. S. Iyengar, 
 J. Tomasi, M. Cossi, J. M. Millam, M. Klene, C. Adamo, R. Cammi, 
 J. W. Ochterski, R. L. Martin, K. Morokuma, O. Farkas, 
 J. B. Foresman, and D. J. Fox, Gaussian, Inc., Wallingford CT, 2019.
 
 ******************************************
 Gaussian 16:  ES64L-G16RevC.01  3-Jul-2019
                18-Apr-2022 
 ******************************************
 %Mem=1GB
 -----------------------------
 #p B3LYP/aug-cc-pVTZ OPT FREQ
 -----------------------------
 1/18=20,19=15,26=3,38=1/1,3;
 2/9=110,12=2,17=6,18=5,40=1/2;
 3/5=16,6=1,7=10,11=2,25=1,30=1,71=1,74=-5/1,2,3;
 4//1;
 5/5=2,38=5/2;
 6/7=2,8=2,9=2,10=2,28=1/1;
 7//1,2,3,16;
 1/18=20,19=15,26=3/3(2);
 2/9=110/2;
 99//99;
 2/9=110/2;
 3/5=16,6=1,7=10,11=2,25=1,30=1,71=1,74=-5/1,2,3;
 4/5=5,16=3,69=1/1;
 5/5=2,38=5/2;
 7//1,2,3,16;
 1/18=20,19=15,26=3/3(-5);
 2/9=110/2;
 6/7=2,8=2,9=2,10=2,19=2,28=1/1;
 99/9=1/99;
 Leave Link    1 at Mon Apr 18 22:26:48 2022, MaxMem=   134217728 cpu:               0.0 elap:               0.0
 (Enter /software/commercial/MERCURY/GAUSSIAN/SSE4/g16/l101.exe)
 -----
 Water
 -----
 Symbolic Z-matrix:
 Charge =  0 Multiplicity = 1
 O                    -0.03963  -0.06103   0. 
 H                     0.9424    0.05934   0. 
 H                    -0.32921   0.88502   0. 
 
 ITRead=  0  0  0
 MicOpt= -1 -1 -1
 NAtoms=      3 NQM=        3 NQMF=       0 NMMI=      0 NMMIF=      0
                NMic=       0 NMicF=      0.
                    Isotopes and Nuclear Properties:
 (Nuclear quadrupole moments (NQMom) in fm**2, nuclear magnetic moments (NMagM)
  in nuclear magnetons)

  Atom         1           2           3
 IAtWgt=          16           1           1
 AtmWgt=  15.9949146   1.0078250   1.0078250
 NucSpn=           0           1           1
 AtZEff=  -0.0000000  -0.0000000  -0.0000000
 NQMom=    0.0000000   0.0000000   0.0000000
 NMagM=    0.0000000   2.7928460   2.7928460
 AtZNuc=   8.0000000   1.0000000   1.0000000
 Leave Link  101 at Mon Apr 18 22:26:49 2022, MaxMem=   134217728 cpu:               0.1 elap:               0.1
 (Enter /software/commercial/MERCURY/GAUSSIAN/SSE4/g16/l103.exe)

 GradGradGradGradGradGradGradGradGradGradGradGradGradGradGradGradGradGrad
 Berny optimization.
 Initialization pass.
                           ----------------------------
                           !    Initial Parameters    !
                           ! (Angstroms and Degrees)  !
 --------------------------                            --------------------------
 ! Name  Definition              Value          Derivative Info.                !
 --------------------------------------------------------------------------------
 ! R1    R(1,2)                  0.9894         estimate D2E/DX2                !
 ! R2    R(1,3)                  0.9894         estimate D2E/DX2                !
 ! A1    A(2,1,3)              100.0311         estimate D2E/DX2                !
 --------------------------------------------------------------------------------
 Trust Radius=3.00D-01 FncErr=1.00D-07 GrdErr=1.00D-06 EigMax=2.50D+02 EigMin=1.00D-04
 Number of steps in this run=     20 maximum allowed number of steps=    100.
 GradGradGradGradGradGradGradGradGradGradGradGradGradGradGradGradGradGrad

 Leave Link  103 at Mon Apr 18 22:26:49 2022, MaxMem=   134217728 cpu:               0.0 elap:               0.0
 (Enter /software/commercial/MERCURY/GAUSSIAN/SSE4/g16/l202.exe)
                          Input orientation:                          
 ---------------------------------------------------------------------
 Center     Atomic      Atomic             Coordinates (Angstroms)
 Number     Number       Type             X           Y           Z
 ---------------------------------------------------------------------
      1          8           0       -0.039630   -0.061032    0.000000
      2          1           0        0.942400    0.059335    0.000000
      3          1           0       -0.329210    0.885019    0.000000
 ---------------------------------------------------------------------
                    Distance matrix (angstroms):
                    1          2          3
     1  O    0.000000
     2  H    0.989379   0.000000
     3  H    0.989378   1.516162   0.000000
 Stoichiometry    H2O
 Framework group  CS[SG(H2O)]
 Deg. of freedom     3
 Full point group                 CS      NOp   2
 Largest Abelian subgroup         CS      NOp   2
 Largest concise Abelian subgroup C1      NOp   1
                         Standard orientation:                         
 ---------------------------------------------------------------------
 Center     Atomic      Atomic             Coordinates (Angstroms)
 Number     Number       Type             X           Y           Z
 ---------------------------------------------------------------------
      1          8           0       -0.000000    0.127151   -0.000000
      2          1           0        0.758081   -0.508604    0.000000
      3          1           0       -0.758081   -0.508603   -0.000000
 ---------------------------------------------------------------------
 Rotational constants (GHZ):         698.5038257         436.2857761         268.5495913
 Leave Link  202 at Mon Apr 18 22:26:49 2022, MaxMem=   134217728 cpu:               0.0 elap:               0.0
 (Enter /software/commercial/MERCURY/GAUSSIAN/SSE4/g16/l301.exe)
 Standard basis: Aug-CC-pVTZ (5D, 7F)
 Ernie: Thresh=  0.10000D-02 Tol=  0.10000D-05 Strict=F.
 Ernie:  3 primitive shells out of 52 were deleted.
 There are    73 symmetry adapted cartesian basis functions of A'  symmetry.
 There are    32 symmetry adapted cartesian basis functions of A"  symmetry.
 There are    62 symmetry adapted basis functions of A'  symmetry.
 There are    30 symmetry adapted basis functions of A"  symmetry.
    92 basis functions,   126 primitive gaussians,   105 cartesian basis functions
     5 alpha electrons        5 beta electrons
       nuclear repulsion energy         8.9067543386 Hartrees.
 IExCor=  402 DFT=T Ex+Corr=B3LYP ExCW=0 ScaHFX=  0.200000
 ScaDFX=  0.800000  0.720000  1.000000  0.810000 ScalE2=  1.000000  1.000000
 IRadAn=      5 IRanWt=     -1 IRanGd=            0 ICorTp=0 IEmpDi=  4
 NAtoms=    3 NActive=    3 NUniq=    3 SFac= 1.00D+00 NAtFMM=   60 NAOKFM=F Big=F
 Integral buffers will be    131072 words long.
 Raffenetti 2 integral format.
 Two-electron integral symmetry is turned on.
 Leave Link  301 at Mon Apr 18 22:26:49 2022, MaxMem=   134217728 cpu:               0.1 elap:               0.1
 (Enter /software/commercial/MERCURY/GAUSSIAN/SSE4/g16/l302.exe)
 NPDir=0 NMtPBC=     1 NCelOv=     1 NCel=       1 NClECP=     1 NCelD=      1
         NCelK=      1 NCelE2=     1 NClLst=     1 CellRange=     0.0.
 One-electron integrals computed using PRISM.
 One-electron integral symmetry used in STVInt
 NBasis=    92 RedAO= T EigKep=  4.21D-04  NBF=    62    30
 NBsUse=    92 1.00D-06 EigRej= -1.00D+00 NBFU=    62    30
 Precomputing XC quadrature grid using
 IXCGrd= 4 IRadAn=           5 IRanWt=          -1 IRanGd=           0 AccXCQ= 0.00D+00.
 Generated NRdTot=       0 NPtTot=           0 NUsed=           0 NTot=          32
 NSgBfM=   105   105   105   105   105 MxSgAt=     3 MxSgA2=     3.
 Leave Link  302 at Mon Apr 18 22:26:49 2022, MaxMem=   134217728 cpu:               0.1 elap:               0.1
 (Enter /software/commercial/MERCURY/GAUSSIAN/SSE4/g16/l303.exe)
 DipDrv:  MaxL=1.
 Leave Link  303 at Mon Apr 18 22:26:49 2022, MaxMem=   134217728 cpu:               0.0 elap:               0.0
 (Enter /software/commercial/MERCURY/GAUSSIAN/SSE4/g16/l401.exe)
 ExpMin= 2.53D-02 ExpMax= 1.53D+04 ExpMxC= 5.22D+02 IAcc=3 IRadAn=         5 AccDes= 0.00D+00
 Harris functional with IExCor=  402 and IRadAn=       5 diagonalized for initial guess.
 HarFok:  IExCor=  402 AccDes= 0.00D+00 IRadAn=         5 IDoV= 1 UseB2=F ITyADJ=14
 ICtDFT=  3500011 ScaDFX=  1.000000  1.000000  1.000000  1.000000
 FoFCou: FMM=F IPFlag=           0 FMFlag=      100000 FMFlg1=           0
         NFxFlg=           0 DoJE=T BraDBF=F KetDBF=T FulRan=T
         wScrn=  0.000000 ICntrl=       500 IOpCl=  0 I1Cent=   200000004 NGrid=           0
         NMat0=    1 NMatS0=      1 NMatT0=    0 NMatD0=    1 NMtDS0=    0 NMtDT0=    0
 Petite list used in FoFCou.
 Harris En= -76.4942948199418    
 JPrj=0 DoOrth=F DoCkMO=F.
 Initial guess orbital symmetries:
       Occupied  (A') (A') (A') (A') (A")
       Virtual   (A') (A') (A') (A") (A') (A') (A') (A') (A") (A')
                 (A") (A') (A') (A') (A') (A') (A') (A") (A") (A')
                 (A") (A') (A') (A") (A") (A') (A') (A') (A') (A")
                 (A') (A') (A") (A') (A") (A') (A") (A') (A') (A')
                 (A') (A") (A") (A') (A') (A") (A') (A') (A') (A")
                 (A') (A') (A") (A') (A') (A") (A") (A') (A") (A')
                 (A") (A') (A") (A') (A') (A') (A") (A') (A') (A')
                 (A") (A') (A') (A') (A") (A') (A") (A") (A') (A")
                 (A') (A") (A') (A') (A') (A') (A')
 The electronic state of the initial guess is 1-A'.
 Leave Link  401 at Mon Apr 18 22:26:49 2022, MaxMem=   134217728 cpu:               0.5 elap:               0.5
 (Enter /software/commercial/MERCURY/GAUSSIAN/SSE4/g16/l502.exe)
 Keep R1 ints in memory in symmetry-blocked form, NReq=13818732.
 FoFCou: FMM=F IPFlag=           0 FMFlag=           0 FMFlg1=           0
         NFxFlg=           0 DoJE=F BraDBF=F KetDBF=F FulRan=T
         wScrn=  0.000000 ICntrl=       600 IOpCl=  0 I1Cent=           0 NGrid=           0
         NMat0=    1 NMatS0=   4278 NMatT0=    0 NMatD0=    1 NMtDS0=    0 NMtDT0=    0
 Petite list used in FoFCou.
 Closed shell SCF:
 Using DIIS extrapolation, IDIIS=  1040.
 NGot=   134217728 LenX=   129528692 LenY=   129517226
 Requested convergence on RMS density matrix=1.00D-08 within 128 cycles.
 Requested convergence on MAX density matrix=1.00D-06.
 Requested convergence on             energy=1.00D-06.
 No special actions if energy rises.

 Cycle   1  Pass 1  IDiag  1:
 E= -76.3845238810028    
 DIIS: error= 5.47D-02 at cycle   1 NSaved=   1.
 NSaved= 1 IEnMin= 1 EnMin= -76.3845238810028     IErMin= 1 ErrMin= 5.47D-02
 ErrMax= 5.47D-02  0.00D+00 EMaxC= 1.00D-01 BMatC= 1.17D-01 BMatP= 1.17D-01
 IDIUse=3 WtCom= 4.53D-01 WtEn= 5.47D-01
 Coeff-Com:  0.100D+01
 Coeff-En:   0.100D+01
 Coeff:      0.100D+01
 Gap=     0.131 Goal=   None    Shift=    0.000
 GapD=    0.131 DampG=1.000 DampE=0.500 DampFc=0.5000 IDamp=-1.
 Damping current iteration by 5.00D-01
 RMSDP=3.94D-03 MaxDP=7.36D-02              OVMax= 2.42D-01

 Cycle   2  Pass 1  IDiag  1:
 E= -76.3907740910689     Delta-E=       -0.006250210066 Rises=F Damp=T
 DIIS: error= 2.30D-02 at cycle   2 NSaved=   2.
 NSaved= 2 IEnMin= 2 EnMin= -76.3907740910689     IErMin= 2 ErrMin= 2.30D-02
 ErrMax= 2.30D-02  0.00D+00 EMaxC= 1.00D-01 BMatC= 2.05D-02 BMatP= 1.17D-01
 IDIUse=3 WtCom= 7.70D-01 WtEn= 2.30D-01
 Coeff-Com:  0.286D+00 0.714D+00
 Coeff-En:   0.470D+00 0.530D+00
 Coeff:      0.328D+00 0.672D+00
 Gap=     0.279 Goal=   None    Shift=    0.000
 RMSDP=7.07D-04 MaxDP=1.24D-02 DE=-6.25D-03 OVMax= 1.64D-01

 Cycle   3  Pass 1  IDiag  1:
 E= -76.4643324077636     Delta-E=       -0.073558316695 Rises=F Damp=F
 DIIS: error= 2.94D-03 at cycle   3 NSaved=   3.
 NSaved= 3 IEnMin= 3 EnMin= -76.4643324077636     IErMin= 3 ErrMin= 2.94D-03
 ErrMax= 2.94D-03  0.00D+00 EMaxC= 1.00D-01 BMatC= 3.24D-04 BMatP= 2.05D-02
 IDIUse=3 WtCom= 9.71D-01 WtEn= 2.94D-02
 Coeff-Com:  0.399D-01-0.238D-01 0.984D+00
 Coeff-En:   0.000D+00 0.000D+00 0.100D+01
 Coeff:      0.387D-01-0.231D-01 0.984D+00
 Gap=     0.293 Goal=   None    Shift=    0.000
 RMSDP=7.54D-05 MaxDP=2.55D-03 DE=-7.36D-02 OVMax= 2.93D-03

 Cycle   4  Pass 1  IDiag  1:
 E= -76.4644967944316     Delta-E=       -0.000164386668 Rises=F Damp=F
 DIIS: error= 6.57D-04 at cycle   4 NSaved=   4.
 NSaved= 4 IEnMin= 4 EnMin= -76.4644967944316     IErMin= 4 ErrMin= 6.57D-04
 ErrMax= 6.57D-04  0.00D+00 EMaxC= 1.00D-01 BMatC= 1.41D-05 BMatP= 3.24D-04
 IDIUse=3 WtCom= 9.93D-01 WtEn= 6.57D-03
 Coeff-Com:  0.992D-02-0.184D-01 0.182D+00 0.827D+00
 Coeff-En:   0.000D+00 0.000D+00 0.000D+00 0.100D+01
 Coeff:      0.985D-02-0.183D-01 0.180D+00 0.828D+00
 Gap=     0.295 Goal=   None    Shift=    0.000
 RMSDP=1.59D-05 MaxDP=3.20D-04 DE=-1.64D-04 OVMax= 9.33D-04

 Cycle   5  Pass 1  IDiag  1:
 E= -76.4645064293577     Delta-E=       -0.000009634926 Rises=F Damp=F
 DIIS: error= 1.23D-04 at cycle   5 NSaved=   5.
 NSaved= 5 IEnMin= 5 EnMin= -76.4645064293577     IErMin= 5 ErrMin= 1.23D-04
 ErrMax= 1.23D-04  0.00D+00 EMaxC= 1.00D-01 BMatC= 7.23D-07 BMatP= 1.41D-05
 IDIUse=3 WtCom= 9.99D-01 WtEn= 1.23D-03
 Coeff-Com:  0.304D-02-0.467D-02 0.274D-01 0.165D+00 0.809D+00
 Coeff-En:   0.000D+00 0.000D+00 0.000D+00 0.000D+00 0.100D+01
 Coeff:      0.304D-02-0.466D-02 0.274D-01 0.165D+00 0.809D+00
 Gap=     0.295 Goal=   None    Shift=    0.000
 RMSDP=4.16D-06 MaxDP=7.54D-05 DE=-9.63D-06 OVMax= 2.18D-04

 Cycle   6  Pass 1  IDiag  1:
 E= -76.4645069913015     Delta-E=       -0.000000561944 Rises=F Damp=F
 DIIS: error= 1.49D-05 at cycle   6 NSaved=   6.
 NSaved= 6 IEnMin= 6 EnMin= -76.4645069913015     IErMin= 6 ErrMin= 1.49D-05
 ErrMax= 1.49D-05  0.00D+00 EMaxC= 1.00D-01 BMatC= 6.79D-09 BMatP= 7.23D-07
 IDIUse=1 WtCom= 1.00D+00 WtEn= 0.00D+00
 Coeff-Com:  0.394D-04-0.199D-03 0.123D-02-0.151D-01-0.986D-02 0.102D+01
 Coeff:      0.394D-04-0.199D-03 0.123D-02-0.151D-01-0.986D-02 0.102D+01
 Gap=     0.295 Goal=   None    Shift=    0.000
 RMSDP=4.95D-07 MaxDP=1.10D-05 DE=-5.62D-07 OVMax= 2.80D-05

 Cycle   7  Pass 1  IDiag  1:
 E= -76.4645069966602     Delta-E=       -0.000000005359 Rises=F Damp=F
 DIIS: error= 8.55D-07 at cycle   7 NSaved=   7.
 NSaved= 7 IEnMin= 7 EnMin= -76.4645069966602     IErMin= 7 ErrMin= 8.55D-07
 ErrMax= 8.55D-07  0.00D+00 EMaxC= 1.00D-01 BMatC= 2.46D-11 BMatP= 6.79D-09
 IDIUse=1 WtCom= 1.00D+00 WtEn= 0.00D+00
 Coeff-Com: -0.960D-05 0.166D-04-0.824D-04-0.304D-03-0.648D-02-0.372D-01
 Coeff-Com:  0.104D+01
 Coeff:     -0.960D-05 0.166D-04-0.824D-04-0.304D-03-0.648D-02-0.372D-01
 Coeff:      0.104D+01
 Gap=     0.295 Goal=   None    Shift=    0.000
 RMSDP=3.70D-08 MaxDP=7.56D-07 DE=-5.36D-09 OVMax= 2.04D-06

 Cycle   8  Pass 1  IDiag  1:
 E= -76.4645069966815     Delta-E=       -0.000000000021 Rises=F Damp=F
 DIIS: error= 5.66D-08 at cycle   8 NSaved=   8.
 NSaved= 8 IEnMin= 8 EnMin= -76.4645069966815     IErMin= 8 ErrMin= 5.66D-08
 ErrMax= 5.66D-08  0.00D+00 EMaxC= 1.00D-01 BMatC= 1.58D-13 BMatP= 2.46D-11
 IDIUse=1 WtCom= 1.00D+00 WtEn= 0.00D+00
 Coeff-Com: -0.580D-06 0.197D-05-0.116D-04 0.115D-03 0.170D-03-0.806D-02
 Coeff-Com:  0.404D-01 0.967D+00
 Coeff:     -0.580D-06 0.197D-05-0.116D-04 0.115D-03 0.170D-03-0.806D-02
 Coeff:      0.404D-01 0.967D+00
 Gap=     0.295 Goal=   None    Shift=    0.000
 RMSDP=2.04D-09 MaxDP=5.00D-08 DE=-2.13D-11 OVMax= 1.76D-07

 SCF Done:  E(RB3LYP) =  -76.4645069967     A.U. after    8 cycles
            NFock=  8  Conv=0.20D-08     -V/T= 2.0071
 KE= 7.592376033407D+01 PE=-1.984438941448D+02 EE= 3.714887247546D+01
 Leave Link  502 at Mon Apr 18 22:26:54 2022, MaxMem=   134217728 cpu:               4.6 elap:               4.6
 (Enter /software/commercial/MERCURY/GAUSSIAN/SSE4/g16/l601.exe)
 Copying SCF densities to generalized density rwf, IOpCl= 0 IROHF=0.

 **********************************************************************

            Population analysis using the SCF Density.

 **********************************************************************

 Orbital symmetries:
       Occupied  (A') (A') (A') (A') (A")
       Virtual   (A') (A') (A') (A") (A') (A') (A') (A') (A") (A")
                 (A') (A') (A') (A') (A') (A') (A') (A") (A") (A')
                 (A") (A') (A') (A") (A") (A') (A') (A') (A') (A")
                 (A') (A') (A") (A') (A") (A') (A") (A') (A') (A')
                 (A') (A") (A") (A') (A') (A") (A') (A') (A') (A")
                 (A') (A') (A") (A') (A') (A") (A") (A') (A") (A')
                 (A") (A') (A") (A') (A') (A') (A") (A') (A') (A')
                 (A") (A') (A') (A') (A") (A') (A") (A') (A") (A")
                 (A") (A') (A') (A') (A') (A') (A')
 The electronic state is 1-A'.
 Alpha  occ. eigenvalues --  -19.14655  -1.01288  -0.52125  -0.40598  -0.32300
 Alpha virt. eigenvalues --   -0.02803   0.01841   0.07330   0.09632   0.10261
 Alpha virt. eigenvalues --    0.11014   0.14788   0.16984   0.19238   0.21355
 Alpha virt. eigenvalues --    0.21938   0.30629   0.32310   0.33771   0.47041
 Alpha virt. eigenvalues --    0.52379   0.56417   0.59301   0.59425   0.67386
 Alpha virt. eigenvalues --    0.70907   0.73482   0.75455   0.75723   0.78506
 Alpha virt. eigenvalues --    0.80236   0.80642   0.86937   0.87987   0.90403
 Alpha virt. eigenvalues --    0.97545   1.03632   1.04327   1.11400   1.31470
 Alpha virt. eigenvalues --    1.32679   1.36276   1.59021   1.62623   1.70015
 Alpha virt. eigenvalues --    1.84013   1.99170   2.03730   2.06800   2.12478
 Alpha virt. eigenvalues --    2.16105   2.17600   2.22601   2.42564   2.43478
 Alpha virt. eigenvalues --    2.47738   2.51901   2.60115   3.28909   3.33176
 Alpha virt. eigenvalues --    3.61156   3.71810   3.80418   3.92447   3.92781
 Alpha virt. eigenvalues --    4.05105   4.05203   4.06790   4.13514   4.28274
 Alpha virt. eigenvalues --    4.39628   4.72162   4.79485   4.82484   4.85383
 Alpha virt. eigenvalues --    5.04988   5.18983   5.72023   6.03818   6.23457
 Alpha virt. eigenvalues --    6.41931   6.61822   6.69660   6.71256   6.77230
 Alpha virt. eigenvalues --    6.82289   6.82571   6.94856   7.29709   7.36170
 Alpha virt. eigenvalues --    8.15573  14.10081
          Condensed to atoms (all electrons):
               1          2          3
     1  O    7.924613   0.240181   0.240181
     2  H    0.240181   0.539558   0.017773
     3  H    0.240181   0.017773   0.539559
 Mulliken charges:
               1
     1  O   -0.404975
     2  H    0.202488
     3  H    0.202487
 Sum of Mulliken charges =  -0.00000
 Mulliken charges with hydrogens summed into heavy atoms:
               1
     1  O   -0.000000
 Electronic spatial extent (au):  <R**2>=             20.4392
 Charge=             -0.0000 electrons
 Dipole moment (field-independent basis, Debye):
    X=             -0.0000    Y=             -1.9350    Z=              0.0000  Tot=              1.9350
 Quadrupole moment (field-independent basis, Debye-Ang):
   XX=             -4.6377   YY=             -6.3692   ZZ=             -7.8576
   XY=             -0.0000   XZ=             -0.0000   YZ=             -0.0000
 Traceless Quadrupole moment (field-independent basis, Debye-Ang):
   XX=              1.6505   YY=             -0.0811   ZZ=             -1.5694
   XY=             -0.0000   XZ=             -0.0000   YZ=             -0.0000
 Octapole moment (field-independent basis, Debye-Ang**2):
  XXX=             -0.0000  YYY=             -0.9884  ZZZ=              0.0000  XYY=              0.0000
  XXY=             -1.3327  XXZ=              0.0000  XZZ=             -0.0000  YZZ=             -0.1821
  YYZ=              0.0000  XYZ=             -0.0000
 Hexadecapole moment (field-independent basis, Debye-Ang**3):
 XXXX=             -7.1443 YYYY=             -8.4198 ZZZZ=             -7.8803 XXXY=              0.0000
 XXXZ=             -0.0000 YYYX=              0.0000 YYYZ=              0.0000 ZZZX=             -0.0000
 ZZZY=              0.0000 XXYY=             -2.1988 XXZZ=             -2.8185 YYZZ=             -2.7802
 XXYZ=             -0.0000 YYXZ=             -0.0000 ZZXY=              0.0000
 N-N= 8.906754338552D+00 E-N=-1.984438918699D+02  KE= 7.592376033407D+01
 Symmetry A'   KE= 7.140071664769D+01
 Symmetry A"   KE= 4.523043686380D+00
 No NMR shielding tensors so no spin-rotation constants.
 Leave Link  601 at Mon Apr 18 22:26:54 2022, MaxMem=   134217728 cpu:               0.1 elap:               0.1
 (Enter /software/commercial/MERCURY/GAUSSIAN/SSE4/g16/l701.exe)
 ... and contract with generalized density number  0.
 Compute integral first derivatives.
 Leave Link  701 at Mon Apr 18 22:26:54 2022, MaxMem=   134217728 cpu:               0.1 elap:               0.1
 (Enter /software/commercial/MERCURY/GAUSSIAN/SSE4/g16/l702.exe)
 L702 exits ... SP integral derivatives will be done elsewhere.
 Leave Link  702 at Mon Apr 18 22:26:54 2022, MaxMem=   134217728 cpu:               0.0 elap:               0.0
 (Enter /software/commercial/MERCURY/GAUSSIAN/SSE4/g16/l703.exe)
 Integral derivatives from FoFJK, PRISM(SPDF).
 Compute integral first derivatives, UseDBF=F ICtDFT=           0.
 Calling FoFJK, ICntrl=      2127 FMM=F ISym2X=1 I1Cent= 0 IOpClX= 0 NMat=1 NMatS=1 NMatT=0.
 FoFJK:  IHMeth= 1 ICntrl=    2127 DoSepK=F KAlg= 0 I1Cent=           0 FoldK=F
 IRaf=         0 NMat=       1 IRICut=       1 DoRegI=T DoRafI=F ISym2E= 1 IDoP0=0 IntGTp=1.
 FoFCou: FMM=F IPFlag=           0 FMFlag=      100000 FMFlg1=         800
         NFxFlg=           0 DoJE=F BraDBF=F KetDBF=F FulRan=T
         wScrn=  0.000000 ICntrl=      2127 IOpCl=  0 I1Cent=           0 NGrid=           0
         NMat0=    1 NMatS0=      1 NMatT0=    0 NMatD0=    1 NMtDS0=    0 NMtDT0=    0
 Petite list used in FoFCou.
 Leave Link  703 at Mon Apr 18 22:26:57 2022, MaxMem=   134217728 cpu:               2.4 elap:               2.4
 (Enter /software/commercial/MERCURY/GAUSSIAN/SSE4/g16/l716.exe)
 Dipole        =-2.16487134D-07-7.61279187D-01 8.66465773D-33
 ***** Axes restored to original set *****
 -------------------------------------------------------------------
 Center     Atomic                   Forces (Hartrees/Bohr)
 Number     Number              X              Y              Z
 -------------------------------------------------------------------
      1        8           0.020626853    0.031765503   -0.000000000
      2        1          -0.021429971   -0.008664862    0.000000000
      3        1           0.000803118   -0.023100641   -0.000000000
 -------------------------------------------------------------------
 Cartesian Forces:  Max     0.031765503 RMS     0.016677071
 Leave Link  716 at Mon Apr 18 22:26:57 2022, MaxMem=   134217728 cpu:               0.1 elap:               0.0
 (Enter /software/commercial/MERCURY/GAUSSIAN/SSE4/g16/l103.exe)

 GradGradGradGradGradGradGradGradGradGradGradGradGradGradGradGradGradGrad
 Berny optimization.
 FormGI is forming the generalized inverse of G from B-inverse, IUseBI=4.
 Internal  Forces:  Max     0.022324947 RMS     0.019341930
 Search for a local minimum.
 Step number   1 out of a maximum of   20
 All quantities printed in internal units (Hartrees-Bohrs-Radians)
 RMS Force = .19342D-01 SwitMx=.10000D-02 MixMth= 1
 Mixed Optimization -- RFO/linear search
 Second derivative matrix not updated -- first step.
 The second derivative matrix:
                          R1        R2        A1
           R1           0.49605
           R2           0.00000   0.49606
           A1           0.00000   0.00000   0.16000
 ITU=  0
     Eigenvalues ---    0.16000   0.49605   0.49606
 RFO step:  Lambda=-2.76964883D-03 EMin= 1.60000000D-01
 Linear search not attempted -- first point.
 Iteration  1 RMS(Cart)=  0.03717464 RMS(Int)=  0.00132508
 Iteration  2 RMS(Cart)=  0.00148773 RMS(Int)=  0.00000072
 Iteration  3 RMS(Cart)=  0.00000049 RMS(Int)=  0.00000000
 ITry= 1 IFail=0 DXMaxC= 4.34D-02 DCOld= 1.00D+10 DXMaxT= 3.00D-01 DXLimC= 3.00D+00 Rises=F
 ClnCor:  largest displacement from symmetrization is 1.16D-15 for atom     3.
 Variable       Old X    -DE/DX   Delta X   Delta X   Delta X     New X
                                 (Linear)    (Quad)   (Total)
    R1        1.86966  -0.02232   0.00000  -0.04476  -0.04476   1.82490
    R2        1.86965  -0.02232   0.00000  -0.04475  -0.04475   1.82490
    A1        1.74587   0.01121   0.00000   0.06884   0.06884   1.81472
         Item               Value     Threshold  Converged?
 Maximum Force            0.022325     0.000450     NO 
 RMS     Force            0.019342     0.000300     NO 
 Maximum Displacement     0.043374     0.001800     NO 
 RMS     Displacement     0.036818     0.001200     NO 
 Predicted change in Energy=-1.396934D-03
 Lowest energy point so far.  Saving SCF results.
 GradGradGradGradGradGradGradGradGradGradGradGradGradGradGradGradGradGrad

 Leave Link  103 at Mon Apr 18 22:26:57 2022, MaxMem=   134217728 cpu:               0.0 elap:               0.0
 (Enter /software/commercial/MERCURY/GAUSSIAN/SSE4/g16/l202.exe)
                          Input orientation:                          
 ---------------------------------------------------------------------
 Center     Atomic      Atomic             Coordinates (Angstroms)
 Number     Number       Type             X           Y           Z
 ---------------------------------------------------------------------
      1          8           0       -0.024726   -0.038080   -0.000000
      2          1           0        0.937272    0.046350   -0.000000
      3          1           0       -0.338986    0.875052    0.000000
 ---------------------------------------------------------------------
                    Distance matrix (angstroms):
                    1          2          3
     1  O    0.000000
     2  H    0.965696   0.000000
     3  H    0.965696   1.521703   0.000000
 Stoichiometry    H2O
 Framework group  CS[SG(H2O)]
 Deg. of freedom     3
 Full point group                 CS      NOp   2
 RotChk:  IX=0 Diff= 1.21D-06
 Largest Abelian subgroup         CS      NOp   2
 Largest concise Abelian subgroup C1      NOp   1
                         Standard orientation:                         
 ---------------------------------------------------------------------
 Center     Atomic      Atomic             Coordinates (Angstroms)
 Number     Number       Type             X           Y           Z
 ---------------------------------------------------------------------
      1          8           0       -0.000000    0.118941    0.000000
      2          1           0        0.760852   -0.475763    0.000000
      3          1           0       -0.760852   -0.475763   -0.000000
 ---------------------------------------------------------------------
 Rotational constants (GHZ):         798.2622002         433.1138271         280.7740194
 Leave Link  202 at Mon Apr 18 22:26:57 2022, MaxMem=   134217728 cpu:               0.0 elap:               0.0
 (Enter /software/commercial/MERCURY/GAUSSIAN/SSE4/g16/l301.exe)
 Standard basis: Aug-CC-pVTZ (5D, 7F)
 Ernie: Thresh=  0.10000D-02 Tol=  0.10000D-05 Strict=F.
 Ernie:  3 primitive shells out of 52 were deleted.
 There are    73 symmetry adapted cartesian basis functions of A'  symmetry.
 There are    32 symmetry adapted cartesian basis functions of A"  symmetry.
 There are    62 symmetry adapted basis functions of A'  symmetry.
 There are    30 symmetry adapted basis functions of A"  symmetry.
    92 basis functions,   126 primitive gaussians,   105 cartesian basis functions
     5 alpha electrons        5 beta electrons
       nuclear repulsion energy         9.1153545720 Hartrees.
 IExCor=  402 DFT=T Ex+Corr=B3LYP ExCW=0 ScaHFX=  0.200000
 ScaDFX=  0.800000  0.720000  1.000000  0.810000 ScalE2=  1.000000  1.000000
 IRadAn=      5 IRanWt=     -1 IRanGd=            0 ICorTp=0 IEmpDi=  4
 NAtoms=    3 NActive=    3 NUniq=    3 SFac= 1.00D+00 NAtFMM=   60 NAOKFM=F Big=F
 Integral buffers will be    131072 words long.
 Raffenetti 2 integral format.
 Two-electron integral symmetry is turned on.
 Leave Link  301 at Mon Apr 18 22:26:57 2022, MaxMem=   134217728 cpu:               0.1 elap:               0.1
 (Enter /software/commercial/MERCURY/GAUSSIAN/SSE4/g16/l302.exe)
 NPDir=0 NMtPBC=     1 NCelOv=     1 NCel=       1 NClECP=     1 NCelD=      1
         NCelK=      1 NCelE2=     1 NClLst=     1 CellRange=     0.0.
 One-electron integrals computed using PRISM.
 One-electron integral symmetry used in STVInt
 NBasis=    92 RedAO= T EigKep=  3.93D-04  NBF=    62    30
 NBsUse=    92 1.00D-06 EigRej= -1.00D+00 NBFU=    62    30
 Precomputing XC quadrature grid using
 IXCGrd= 4 IRadAn=           5 IRanWt=          -1 IRanGd=           0 AccXCQ= 0.00D+00.
 Generated NRdTot=       0 NPtTot=           0 NUsed=           0 NTot=          32
 NSgBfM=   105   105   105   105   105 MxSgAt=     3 MxSgA2=     3.
 Leave Link  302 at Mon Apr 18 22:26:57 2022, MaxMem=   134217728 cpu:               0.1 elap:               0.1
 (Enter /software/commercial/MERCURY/GAUSSIAN/SSE4/g16/l303.exe)
 DipDrv:  MaxL=1.
 Leave Link  303 at Mon Apr 18 22:26:57 2022, MaxMem=   134217728 cpu:               0.0 elap:               0.0
 (Enter /software/commercial/MERCURY/GAUSSIAN/SSE4/g16/l401.exe)
 Initial guess from the checkpoint file:  "/home/thomasegg/AlcoholMixtureSpec/Gau-760610.chk"
 B after Tr=    -0.000000   -0.000000    0.000000
         Rot=    1.000000   -0.000000   -0.000000   -0.000000 Ang=  -0.00 deg.
 Guess basis will be translated and rotated to current coordinates.
 JPrj=2 DoOrth=T DoCkMO=T.
 Initial guess orbital symmetries:
       Occupied  (A') (A') (A') (A') (A")
       Virtual   (A') (A') (A') (A") (A') (A') (A') (A') (A") (A")
                 (A') (A') (A') (A') (A') (A') (A') (A") (A") (A')
                 (A") (A') (A') (A") (A") (A') (A') (A') (A') (A")
                 (A') (A') (A") (A') (A") (A') (A") (A') (A') (A')
                 (A') (A") (A") (A') (A') (A") (A') (A') (A') (A")
                 (A') (A') (A") (A') (A') (A") (A") (A') (A") (A')
                 (A") (A') (A") (A') (A') (A') (A") (A') (A') (A')
                 (A") (A') (A') (A') (A") (A') (A") (A') (A") (A")
                 (A") (A') (A') (A') (A') (A') (A')
 The electronic state of the initial guess is 1-A'.
 Generating alternative initial guess.
 ExpMin= 2.53D-02 ExpMax= 1.53D+04 ExpMxC= 5.22D+02 IAcc=3 IRadAn=         5 AccDes= 0.00D+00
 Harris functional with IExCor=  402 and IRadAn=       5 diagonalized for initial guess.
 HarFok:  IExCor=  402 AccDes= 0.00D+00 IRadAn=         5 IDoV= 1 UseB2=F ITyADJ=14
 ICtDFT=  3500011 ScaDFX=  1.000000  1.000000  1.000000  1.000000
 FoFCou: FMM=F IPFlag=           0 FMFlag=      100000 FMFlg1=           0
         NFxFlg=           0 DoJE=T BraDBF=F KetDBF=T FulRan=T
         wScrn=  0.000000 ICntrl=       500 IOpCl=  0 I1Cent=   200000004 NGrid=           0
         NMat0=    1 NMatS0=      1 NMatT0=    0 NMatD0=    1 NMtDS0=    0 NMtDT0=    0
 Petite list used in FoFCou.
 Harris En= -76.4981388100021    
 Leave Link  401 at Mon Apr 18 22:26:58 2022, MaxMem=   134217728 cpu:               0.5 elap:               0.5
 (Enter /software/commercial/MERCURY/GAUSSIAN/SSE4/g16/l502.exe)
 Keep R1 ints in memory in symmetry-blocked form, NReq=13818732.
 FoFCou: FMM=F IPFlag=           0 FMFlag=           0 FMFlg1=           0
         NFxFlg=           0 DoJE=F BraDBF=F KetDBF=F FulRan=T
         wScrn=  0.000000 ICntrl=       600 IOpCl=  0 I1Cent=           0 NGrid=           0
         NMat0=    1 NMatS0=   4278 NMatT0=    0 NMatD0=    1 NMtDS0=    0 NMtDT0=    0
 Petite list used in FoFCou.
 Closed shell SCF:
 Using DIIS extrapolation, IDIIS=  1040.
 NGot=   134217728 LenX=   129528692 LenY=   129517226
 Requested convergence on RMS density matrix=1.00D-08 within 128 cycles.
 Requested convergence on MAX density matrix=1.00D-06.
 Requested convergence on             energy=1.00D-06.
 No special actions if energy rises.

 Cycle   1  Pass 1  IDiag  1:
 E= -76.4655520061241    
 DIIS: error= 4.45D-03 at cycle   1 NSaved=   1.
 NSaved= 1 IEnMin= 1 EnMin= -76.4655520061241     IErMin= 1 ErrMin= 4.45D-03
 ErrMax= 4.45D-03  0.00D+00 EMaxC= 1.00D-01 BMatC= 6.82D-04 BMatP= 6.82D-04
 IDIUse=3 WtCom= 9.56D-01 WtEn= 4.45D-02
 Coeff-Com:  0.100D+01
 Coeff-En:   0.100D+01
 Coeff:      0.100D+01
 Gap=     0.323 Goal=   None    Shift=    0.000
 GapD=    0.323 DampG=1.000 DampE=1.000 DampFc=1.0000 IDamp=-1.
 RMSDP=3.43D-04 MaxDP=5.98D-03              OVMax= 1.12D-02

 Cycle   2  Pass 1  IDiag  1:
 E= -76.4661011561537     Delta-E=       -0.000549150030 Rises=F Damp=F
 DIIS: error= 1.44D-03 at cycle   2 NSaved=   2.
 NSaved= 2 IEnMin= 2 EnMin= -76.4661011561537     IErMin= 2 ErrMin= 1.44D-03
 ErrMax= 1.44D-03  0.00D+00 EMaxC= 1.00D-01 BMatC= 7.50D-05 BMatP= 6.82D-04
 IDIUse=3 WtCom= 9.86D-01 WtEn= 1.44D-02
 Coeff-Com:  0.139D+00 0.861D+00
 Coeff-En:   0.000D+00 0.100D+01
 Coeff:      0.137D+00 0.863D+00
 Gap=     0.296 Goal=   None    Shift=    0.000
 RMSDP=7.57D-05 MaxDP=1.50D-03 DE=-5.49D-04 OVMax= 4.26D-03

 Cycle   3  Pass 1  IDiag  1:
 E= -76.4660988914117     Delta-E=        0.000002264742 Rises=F Damp=F
 DIIS: error= 1.52D-03 at cycle   3 NSaved=   3.
 NSaved= 3 IEnMin= 2 EnMin= -76.4661011561537     IErMin= 2 ErrMin= 1.44D-03
 ErrMax= 1.52D-03  0.00D+00 EMaxC= 1.00D-01 BMatC= 7.77D-05 BMatP= 7.50D-05
 IDIUse=3 WtCom= 9.85D-01 WtEn= 1.52D-02
 Coeff-Com:  0.920D-02 0.503D+00 0.488D+00
 Coeff-En:   0.000D+00 0.511D+00 0.489D+00
 Coeff:      0.906D-02 0.503D+00 0.488D+00
 Gap=     0.299 Goal=   None    Shift=    0.000
 RMSDP=4.40D-05 MaxDP=7.75D-04 DE= 2.26D-06 OVMax= 2.34D-03

 Cycle   4  Pass 1  IDiag  1:
 E= -76.4661473244721     Delta-E=       -0.000048433060 Rises=F Damp=F
 DIIS: error= 2.31D-04 at cycle   4 NSaved=   4.
 NSaved= 4 IEnMin= 4 EnMin= -76.4661473244721     IErMin= 4 ErrMin= 2.31D-04
 ErrMax= 2.31D-04  0.00D+00 EMaxC= 1.00D-01 BMatC= 2.80D-06 BMatP= 7.50D-05
 IDIUse=3 WtCom= 9.98D-01 WtEn= 2.31D-03
 Coeff-Com: -0.814D-02 0.123D+00 0.212D+00 0.673D+00
 Coeff-En:   0.000D+00 0.000D+00 0.000D+00 0.100D+01
 Coeff:     -0.812D-02 0.123D+00 0.212D+00 0.673D+00
 Gap=     0.299 Goal=   None    Shift=    0.000
 RMSDP=7.70D-06 MaxDP=1.22D-04 DE=-4.84D-05 OVMax= 4.33D-04

 Cycle   5  Pass 1  IDiag  1:
 E= -76.4661492439010     Delta-E=       -0.000001919429 Rises=F Damp=F
 DIIS: error= 1.10D-05 at cycle   5 NSaved=   5.
 NSaved= 5 IEnMin= 5 EnMin= -76.4661492439010     IErMin= 5 ErrMin= 1.10D-05
 ErrMax= 1.10D-05  0.00D+00 EMaxC= 1.00D-01 BMatC= 5.52D-09 BMatP= 2.80D-06
 IDIUse=1 WtCom= 1.00D+00 WtEn= 0.00D+00
 Coeff-Com: -0.241D-03-0.556D-02-0.391D-02 0.346D-01 0.975D+00
 Coeff:     -0.241D-03-0.556D-02-0.391D-02 0.346D-01 0.975D+00
 Gap=     0.299 Goal=   None    Shift=    0.000
 RMSDP=6.54D-07 MaxDP=2.15D-05 DE=-1.92D-06 OVMax= 3.71D-05

 Cycle   6  Pass 1  IDiag  1:
 E= -76.4661492482879     Delta-E=       -0.000000004387 Rises=F Damp=F
 DIIS: error= 1.22D-06 at cycle   6 NSaved=   6.
 NSaved= 6 IEnMin= 6 EnMin= -76.4661492482879     IErMin= 6 ErrMin= 1.22D-06
 ErrMax= 1.22D-06  0.00D+00 EMaxC= 1.00D-01 BMatC= 4.34D-11 BMatP= 5.52D-09
 IDIUse=1 WtCom= 1.00D+00 WtEn= 0.00D+00
 Coeff-Com:  0.618D-04-0.113D-02-0.106D-02-0.502D-02 0.713D-03 0.101D+01
 Coeff:      0.618D-04-0.113D-02-0.106D-02-0.502D-02 0.713D-03 0.101D+01
 Gap=     0.299 Goal=   None    Shift=    0.000
 RMSDP=4.65D-08 MaxDP=9.98D-07 DE=-4.39D-09 OVMax= 2.79D-06

 Cycle   7  Pass 1  IDiag  1:
 E= -76.4661492483260     Delta-E=       -0.000000000038 Rises=F Damp=F
 DIIS: error= 3.68D-08 at cycle   7 NSaved=   7.
 NSaved= 7 IEnMin= 7 EnMin= -76.4661492483260     IErMin= 7 ErrMin= 3.68D-08
 ErrMax= 3.68D-08  0.00D+00 EMaxC= 1.00D-01 BMatC= 6.73D-14 BMatP= 4.34D-11
 IDIUse=1 WtCom= 1.00D+00 WtEn= 0.00D+00
 Coeff-Com: -0.639D-06 0.561D-04-0.823D-05-0.125D-03-0.387D-02-0.520D-01
 Coeff-Com:  0.106D+01
 Coeff:     -0.639D-06 0.561D-04-0.823D-05-0.125D-03-0.387D-02-0.520D-01
 Coeff:      0.106D+01
 Gap=     0.299 Goal=   None    Shift=    0.000
 RMSDP=3.10D-09 MaxDP=5.38D-08 DE=-3.80D-11 OVMax= 2.77D-07

 SCF Done:  E(RB3LYP) =  -76.4661492483     A.U. after    7 cycles
            NFock=  7  Conv=0.31D-08     -V/T= 2.0061
 KE= 7.600025213624D+01 PE=-1.989011018488D+02 EE= 3.731934589222D+01
 Leave Link  502 at Mon Apr 18 22:27:02 2022, MaxMem=   134217728 cpu:               4.2 elap:               4.2
 (Enter /software/commercial/MERCURY/GAUSSIAN/SSE4/g16/l701.exe)
 ... and contract with generalized density number  0.
 Compute integral first derivatives.
 Leave Link  701 at Mon Apr 18 22:27:02 2022, MaxMem=   134217728 cpu:               0.1 elap:               0.1
 (Enter /software/commercial/MERCURY/GAUSSIAN/SSE4/g16/l702.exe)
 L702 exits ... SP integral derivatives will be done elsewhere.
 Leave Link  702 at Mon Apr 18 22:27:02 2022, MaxMem=   134217728 cpu:               0.0 elap:               0.0
 (Enter /software/commercial/MERCURY/GAUSSIAN/SSE4/g16/l703.exe)
 Integral derivatives from FoFJK, PRISM(SPDF).
 Compute integral first derivatives, UseDBF=F ICtDFT=           0.
 Calling FoFJK, ICntrl=      2127 FMM=F ISym2X=1 I1Cent= 0 IOpClX= 0 NMat=1 NMatS=1 NMatT=0.
 FoFJK:  IHMeth= 1 ICntrl=    2127 DoSepK=F KAlg= 0 I1Cent=           0 FoldK=F
 IRaf=         0 NMat=       1 IRICut=       1 DoRegI=T DoRafI=F ISym2E= 1 IDoP0=0 IntGTp=1.
 FoFCou: FMM=F IPFlag=           0 FMFlag=      100000 FMFlg1=         800
         NFxFlg=           0 DoJE=F BraDBF=F KetDBF=F FulRan=T
         wScrn=  0.000000 ICntrl=      2127 IOpCl=  0 I1Cent=           0 NGrid=           0
         NMat0=    1 NMatS0=      1 NMatT0=    0 NMatD0=    1 NMtDS0=    0 NMtDT0=    0
 Petite list used in FoFCou.
 Leave Link  703 at Mon Apr 18 22:27:05 2022, MaxMem=   134217728 cpu:               2.5 elap:               2.5
 (Enter /software/commercial/MERCURY/GAUSSIAN/SSE4/g16/l716.exe)
 Dipole        =-3.98373801D-09-7.34023251D-01-1.18330388D-32
 ***** Axes restored to original set *****
 -------------------------------------------------------------------
 Center     Atomic                   Forces (Hartrees/Bohr)
 Number     Number              X              Y              Z
 -------------------------------------------------------------------
      1        8           0.003390945    0.005222248   -0.000000000
      2        1          -0.003060977   -0.001724482    0.000000000
      3        1          -0.000329968   -0.003497767   -0.000000000
 -------------------------------------------------------------------
 Cartesian Forces:  Max     0.005222248 RMS     0.002655331
 Leave Link  716 at Mon Apr 18 22:27:05 2022, MaxMem=   134217728 cpu:               0.0 elap:               0.0
 (Enter /software/commercial/MERCURY/GAUSSIAN/SSE4/g16/l103.exe)

 GradGradGradGradGradGradGradGradGradGradGradGradGradGradGradGradGradGrad
 Berny optimization.
 Using GEDIIS/GDIIS optimizer.
 FormGI is forming the generalized inverse of G from B-inverse, IUseBI=4.
 Internal  Forces:  Max     0.003200025 RMS     0.003026800
 Search for a local minimum.
 Step number   2 out of a maximum of   20
 All quantities printed in internal units (Hartrees-Bohrs-Radians)
 RMS Force = .30268D-02 SwitMx=.10000D-02 MixMth= 1
 Mixed Optimization -- RFO/linear search
 Update second derivatives using D2CorX and points    1    2
 DE= -1.64D-03 DEPred=-1.40D-03 R= 1.18D+00
 TightC=F SS=  1.41D+00  RLast= 9.35D-02 DXNew= 5.0454D-01 2.8055D-01
 Trust test= 1.18D+00 RLast= 9.35D-02 DXMaxT set to 3.00D-01
 The second derivative matrix:
                          R1        R2        A1
           R1           0.47548
           R2          -0.02057   0.47548
           A1           0.01793   0.01793   0.14764
 ITU=  1  0
 Use linear search instead of GDIIS.
     Eigenvalues ---    0.14556   0.45699   0.49606
 RFO step:  Lambda=-5.14064910D-06 EMin= 1.45564183D-01
 Quartic linear search produced a step of  0.18986.
 Iteration  1 RMS(Cart)=  0.00896749 RMS(Int)=  0.00007357
 Iteration  2 RMS(Cart)=  0.00007924 RMS(Int)=  0.00000000
 Iteration  3 RMS(Cart)=  0.00000000 RMS(Int)=  0.00000000
 ITry= 1 IFail=0 DXMaxC= 9.79D-03 DCOld= 1.00D+10 DXMaxT= 3.00D-01 DXLimC= 3.00D+00 Rises=F
 ClnCor:  largest displacement from symmetrization is 2.33D-16 for atom     2.
 Variable       Old X    -DE/DX   Delta X   Delta X   Delta X     New X
                                 (Linear)    (Quad)   (Total)
    R1        1.82490  -0.00320  -0.00850   0.00111  -0.00739   1.81751
    R2        1.82490  -0.00320  -0.00850   0.00111  -0.00739   1.81751
    A1        1.81472   0.00265   0.01307   0.00496   0.01803   1.83274
         Item               Value     Threshold  Converged?
 Maximum Force            0.003200     0.000450     NO 
 RMS     Force            0.003027     0.000300     NO 
 Maximum Displacement     0.009786     0.001800     NO 
 RMS     Displacement     0.008938     0.001200     NO 
 Predicted change in Energy=-5.094996D-05
 Lowest energy point so far.  Saving SCF results.
 GradGradGradGradGradGradGradGradGradGradGradGradGradGradGradGradGradGrad

 Leave Link  103 at Mon Apr 18 22:27:05 2022, MaxMem=   134217728 cpu:               0.0 elap:               0.0
 (Enter /software/commercial/MERCURY/GAUSSIAN/SSE4/g16/l202.exe)
                          Input orientation:                          
 ---------------------------------------------------------------------
 Center     Atomic      Atomic             Coordinates (Angstroms)
 Number     Number       Type             X           Y           Z
 ---------------------------------------------------------------------
      1          8           0       -0.021364   -0.032901   -0.000000
      2          1           0        0.937459    0.042547   -0.000000
      3          1           0       -0.342535    0.873676    0.000000
 ---------------------------------------------------------------------
                    Distance matrix (angstroms):
                    1          2          3
     1  O    0.000000
     2  H    0.961786   0.000000
     3  H    0.961786   1.526158   0.000000
 Stoichiometry    H2O
 Framework group  CS[SG(H2O)]
 Deg. of freedom     3
 Full point group                 CS      NOp   2
 RotChk:  IX=0 Diff= 5.24D-08
 Largest Abelian subgroup         CS      NOp   2
 Largest concise Abelian subgroup C1      NOp   1
                         Standard orientation:                         
 ---------------------------------------------------------------------
 Center     Atomic      Atomic             Coordinates (Angstroms)
 Number     Number       Type             X           Y           Z
 ---------------------------------------------------------------------
      1          8           0        0.000000    0.117089    0.000000
      2          1           0        0.763079   -0.468354    0.000000
      3          1           0       -0.763079   -0.468354    0.000000
 ---------------------------------------------------------------------
 Rotational constants (GHZ):         823.7183293         430.5889132         282.7728073
 Leave Link  202 at Mon Apr 18 22:27:05 2022, MaxMem=   134217728 cpu:               0.0 elap:               0.0
 (Enter /software/commercial/MERCURY/GAUSSIAN/SSE4/g16/l301.exe)
 Standard basis: Aug-CC-pVTZ (5D, 7F)
 Ernie: Thresh=  0.10000D-02 Tol=  0.10000D-05 Strict=F.
 Ernie:  3 primitive shells out of 52 were deleted.
 There are    73 symmetry adapted cartesian basis functions of A'  symmetry.
 There are    32 symmetry adapted cartesian basis functions of A"  symmetry.
 There are    62 symmetry adapted basis functions of A'  symmetry.
 There are    30 symmetry adapted basis functions of A"  symmetry.
    92 basis functions,   126 primitive gaussians,   105 cartesian basis functions
     5 alpha electrons        5 beta electrons
       nuclear repulsion energy         9.1499774716 Hartrees.
 IExCor=  402 DFT=T Ex+Corr=B3LYP ExCW=0 ScaHFX=  0.200000
 ScaDFX=  0.800000  0.720000  1.000000  0.810000 ScalE2=  1.000000  1.000000
 IRadAn=      5 IRanWt=     -1 IRanGd=            0 ICorTp=0 IEmpDi=  4
 NAtoms=    3 NActive=    3 NUniq=    3 SFac= 1.00D+00 NAtFMM=   60 NAOKFM=F Big=F
 Integral buffers will be    131072 words long.
 Raffenetti 2 integral format.
 Two-electron integral symmetry is turned on.
 Leave Link  301 at Mon Apr 18 22:27:05 2022, MaxMem=   134217728 cpu:               0.1 elap:               0.1
 (Enter /software/commercial/MERCURY/GAUSSIAN/SSE4/g16/l302.exe)
 NPDir=0 NMtPBC=     1 NCelOv=     1 NCel=       1 NClECP=     1 NCelD=      1
         NCelK=      1 NCelE2=     1 NClLst=     1 CellRange=     0.0.
 One-electron integrals computed using PRISM.
 One-electron integral symmetry used in STVInt
 NBasis=    92 RedAO= T EigKep=  3.88D-04  NBF=    62    30
 NBsUse=    92 1.00D-06 EigRej= -1.00D+00 NBFU=    62    30
 Precomputing XC quadrature grid using
 IXCGrd= 4 IRadAn=           5 IRanWt=          -1 IRanGd=           0 AccXCQ= 0.00D+00.
 Generated NRdTot=       0 NPtTot=           0 NUsed=           0 NTot=          32
 NSgBfM=   105   105   105   105   105 MxSgAt=     3 MxSgA2=     3.
 Leave Link  302 at Mon Apr 18 22:27:05 2022, MaxMem=   134217728 cpu:               0.1 elap:               0.1
 (Enter /software/commercial/MERCURY/GAUSSIAN/SSE4/g16/l303.exe)
 DipDrv:  MaxL=1.
 Leave Link  303 at Mon Apr 18 22:27:05 2022, MaxMem=   134217728 cpu:               0.0 elap:               0.0
 (Enter /software/commercial/MERCURY/GAUSSIAN/SSE4/g16/l401.exe)
 Initial guess from the checkpoint file:  "/home/thomasegg/AlcoholMixtureSpec/Gau-760610.chk"
 B after Tr=     0.000000    0.000000   -0.000000
         Rot=    1.000000   -0.000000   -0.000000   -0.000000 Ang=  -0.00 deg.
 Guess basis will be translated and rotated to current coordinates.
 JPrj=2 DoOrth=T DoCkMO=T.
 Initial guess orbital symmetries:
       Occupied  (A') (A') (A') (A') (A")
       Virtual   (A') (A') (A') (A") (A') (A') (A') (A') (A") (A")
                 (A') (A') (A') (A') (A') (A') (A') (A") (A") (A')
                 (A") (A') (A") (A') (A") (A') (A') (A') (A') (A")
                 (A') (A') (A") (A') (A") (A') (A") (A') (A') (A')
                 (A') (A") (A") (A') (A') (A") (A') (A') (A') (A")
                 (A') (A') (A") (A') (A') (A") (A") (A') (A') (A")
                 (A") (A') (A") (A') (A') (A') (A") (A') (A') (A')
                 (A") (A') (A') (A') (A") (A') (A") (A") (A') (A')
                 (A") (A") (A') (A') (A') (A') (A')
 The electronic state of the initial guess is 1-A'.
 Leave Link  401 at Mon Apr 18 22:27:05 2022, MaxMem=   134217728 cpu:               0.1 elap:               0.1
 (Enter /software/commercial/MERCURY/GAUSSIAN/SSE4/g16/l502.exe)
 Keep R1 ints in memory in symmetry-blocked form, NReq=13818732.
 FoFCou: FMM=F IPFlag=           0 FMFlag=           0 FMFlg1=           0
         NFxFlg=           0 DoJE=F BraDBF=F KetDBF=F FulRan=T
         wScrn=  0.000000 ICntrl=       600 IOpCl=  0 I1Cent=           0 NGrid=           0
         NMat0=    1 NMatS0=   4278 NMatT0=    0 NMatD0=    1 NMtDS0=    0 NMtDT0=    0
 Petite list used in FoFCou.
 Closed shell SCF:
 Using DIIS extrapolation, IDIIS=  1040.
 NGot=   134217728 LenX=   129528692 LenY=   129517226
 Requested convergence on RMS density matrix=1.00D-08 within 128 cycles.
 Requested convergence on MAX density matrix=1.00D-06.
 Requested convergence on             energy=1.00D-06.
 No special actions if energy rises.

 Cycle   1  Pass 1  IDiag  1:
 E= -76.4661698086267    
 DIIS: error= 9.11D-04 at cycle   1 NSaved=   1.
 NSaved= 1 IEnMin= 1 EnMin= -76.4661698086267     IErMin= 1 ErrMin= 9.11D-04
 ErrMax= 9.11D-04  0.00D+00 EMaxC= 1.00D-01 BMatC= 3.13D-05 BMatP= 3.13D-05
 IDIUse=3 WtCom= 9.91D-01 WtEn= 9.11D-03
 Coeff-Com:  0.100D+01
 Coeff-En:   0.100D+01
 Coeff:      0.100D+01
 Gap=     0.301 Goal=   None    Shift=    0.000
 RMSDP=7.28D-05 MaxDP=1.29D-03              OVMax= 2.44D-03

 Cycle   2  Pass 1  IDiag  1:
 E= -76.4661970390888     Delta-E=       -0.000027230462 Rises=F Damp=F
 DIIS: error= 1.77D-04 at cycle   2 NSaved=   2.
 NSaved= 2 IEnMin= 2 EnMin= -76.4661970390888     IErMin= 2 ErrMin= 1.77D-04
 ErrMax= 1.77D-04  0.00D+00 EMaxC= 1.00D-01 BMatC= 1.63D-06 BMatP= 3.13D-05
 IDIUse=3 WtCom= 9.98D-01 WtEn= 1.77D-03
 Coeff-Com:  0.676D-01 0.932D+00
 Coeff-En:   0.000D+00 0.100D+01
 Coeff:      0.675D-01 0.932D+00
 Gap=     0.299 Goal=   None    Shift=    0.000
 RMSDP=1.08D-05 MaxDP=2.09D-04 DE=-2.72D-05 OVMax= 5.36D-04

 Cycle   3  Pass 1  IDiag  1:
 E= -76.4661974748141     Delta-E=       -0.000000435725 Rises=F Damp=F
 DIIS: error= 1.70D-04 at cycle   3 NSaved=   3.
 NSaved= 3 IEnMin= 3 EnMin= -76.4661974748141     IErMin= 3 ErrMin= 1.70D-04
 ErrMax= 1.70D-04  0.00D+00 EMaxC= 1.00D-01 BMatC= 9.60D-07 BMatP= 1.63D-06
 IDIUse=3 WtCom= 9.98D-01 WtEn= 1.70D-03
 Coeff-Com: -0.341D-02 0.425D+00 0.578D+00
 Coeff-En:   0.000D+00 0.331D+00 0.669D+00
 Coeff:     -0.340D-02 0.425D+00 0.578D+00
 Gap=     0.299 Goal=   None    Shift=    0.000
 RMSDP=5.82D-06 MaxDP=1.00D-04 DE=-4.36D-07 OVMax= 3.20D-04

 Cycle   4  Pass 1  IDiag  1:
 E= -76.4661979626888     Delta-E=       -0.000000487875 Rises=F Damp=F
 DIIS: error= 7.00D-05 at cycle   4 NSaved=   4.
 NSaved= 4 IEnMin= 4 EnMin= -76.4661979626888     IErMin= 4 ErrMin= 7.00D-05
 ErrMax= 7.00D-05  0.00D+00 EMaxC= 1.00D-01 BMatC= 1.95D-07 BMatP= 9.60D-07
 IDIUse=1 WtCom= 1.00D+00 WtEn= 0.00D+00
 Coeff-Com: -0.851D-02 0.137D+00 0.343D+00 0.528D+00
 Coeff:     -0.851D-02 0.137D+00 0.343D+00 0.528D+00
 Gap=     0.299 Goal=   None    Shift=    0.000
 RMSDP=1.95D-06 MaxDP=3.17D-05 DE=-4.88D-07 OVMax= 1.07D-04

 Cycle   5  Pass 1  IDiag  1:
 E= -76.4661980922154     Delta-E=       -0.000000129527 Rises=F Damp=F
 DIIS: error= 1.91D-06 at cycle   5 NSaved=   5.
 NSaved= 5 IEnMin= 5 EnMin= -76.4661980922154     IErMin= 5 ErrMin= 1.91D-06
 ErrMax= 1.91D-06  0.00D+00 EMaxC= 1.00D-01 BMatC= 1.67D-10 BMatP= 1.95D-07
 IDIUse=1 WtCom= 1.00D+00 WtEn= 0.00D+00
 Coeff-Com: -0.173D-04-0.808D-02-0.454D-02 0.208D-01 0.992D+00
 Coeff:     -0.173D-04-0.808D-02-0.454D-02 0.208D-01 0.992D+00
 Gap=     0.299 Goal=   None    Shift=    0.000
 RMSDP=1.29D-07 MaxDP=4.47D-06 DE=-1.30D-07 OVMax= 6.56D-06

 Cycle   6  Pass 1  IDiag  1:
 E= -76.4661980923467     Delta-E=       -0.000000000131 Rises=F Damp=F
 DIIS: error= 1.83D-07 at cycle   6 NSaved=   6.
 NSaved= 6 IEnMin= 6 EnMin= -76.4661980923467     IErMin= 6 ErrMin= 1.83D-07
 ErrMax= 1.83D-07  0.00D+00 EMaxC= 1.00D-01 BMatC= 1.04D-12 BMatP= 1.67D-10
 IDIUse=1 WtCom= 1.00D+00 WtEn= 0.00D+00
 Coeff-Com:  0.540D-04-0.114D-02-0.145D-02-0.294D-02 0.230D-01 0.982D+00
 Coeff:      0.540D-04-0.114D-02-0.145D-02-0.294D-02 0.230D-01 0.982D+00
 Gap=     0.299 Goal=   None    Shift=    0.000
 RMSDP=7.22D-09 MaxDP=1.61D-07 DE=-1.31D-10 OVMax= 4.45D-07

 SCF Done:  E(RB3LYP) =  -76.4661980923     A.U. after    6 cycles
            NFock=  6  Conv=0.72D-08     -V/T= 2.0060
 KE= 7.601289035753D+01 PE=-1.989773059896D+02 EE= 3.734824006813D+01
 Leave Link  502 at Mon Apr 18 22:27:09 2022, MaxMem=   134217728 cpu:               3.8 elap:               3.8
 (Enter /software/commercial/MERCURY/GAUSSIAN/SSE4/g16/l701.exe)
 ... and contract with generalized density number  0.
 Compute integral first derivatives.
 Leave Link  701 at Mon Apr 18 22:27:09 2022, MaxMem=   134217728 cpu:               0.1 elap:               0.1
 (Enter /software/commercial/MERCURY/GAUSSIAN/SSE4/g16/l702.exe)
 L702 exits ... SP integral derivatives will be done elsewhere.
 Leave Link  702 at Mon Apr 18 22:27:09 2022, MaxMem=   134217728 cpu:               0.0 elap:               0.0
 (Enter /software/commercial/MERCURY/GAUSSIAN/SSE4/g16/l703.exe)
 Integral derivatives from FoFJK, PRISM(SPDF).
 Compute integral first derivatives, UseDBF=F ICtDFT=           0.
 Calling FoFJK, ICntrl=      2127 FMM=F ISym2X=1 I1Cent= 0 IOpClX= 0 NMat=1 NMatS=1 NMatT=0.
 FoFJK:  IHMeth= 1 ICntrl=    2127 DoSepK=F KAlg= 0 I1Cent=           0 FoldK=F
 IRaf=         0 NMat=       1 IRICut=       1 DoRegI=T DoRafI=F ISym2E= 1 IDoP0=0 IntGTp=1.
 FoFCou: FMM=F IPFlag=           0 FMFlag=      100000 FMFlg1=         800
         NFxFlg=           0 DoJE=F BraDBF=F KetDBF=F FulRan=T
         wScrn=  0.000000 ICntrl=      2127 IOpCl=  0 I1Cent=           0 NGrid=           0
         NMat0=    1 NMatS0=      1 NMatT0=    0 NMatD0=    1 NMtDS0=    0 NMtDT0=    0
 Petite list used in FoFCou.
 Leave Link  703 at Mon Apr 18 22:27:12 2022, MaxMem=   134217728 cpu:               2.4 elap:               2.4
 (Enter /software/commercial/MERCURY/GAUSSIAN/SSE4/g16/l716.exe)
 Dipole        = 2.79814505D-09-7.27187016D-01 1.66841232D-34
 ***** Axes restored to original set *****
 -------------------------------------------------------------------
 Center     Atomic                   Forces (Hartrees/Bohr)
 Number     Number              X              Y              Z
 -------------------------------------------------------------------
      1        8           0.000041232    0.000063523    0.000000000
      2        1           0.000105415   -0.000113590   -0.000000000
      3        1          -0.000146647    0.000050067    0.000000000
 -------------------------------------------------------------------
 Cartesian Forces:  Max     0.000146647 RMS     0.000077289
 Leave Link  716 at Mon Apr 18 22:27:12 2022, MaxMem=   134217728 cpu:               0.0 elap:               0.0
 (Enter /software/commercial/MERCURY/GAUSSIAN/SSE4/g16/l103.exe)

 GradGradGradGradGradGradGradGradGradGradGradGradGradGradGradGradGradGrad
 Berny optimization.
 Using GEDIIS/GDIIS optimizer.
 FormGI is forming the generalized inverse of G from B-inverse, IUseBI=4.
 Internal  Forces:  Max     0.000220845 RMS     0.000149745
 Search for a local minimum.
 Step number   3 out of a maximum of   20
 All quantities printed in internal units (Hartrees-Bohrs-Radians)
 RMS Force = .14974D-03 SwitMx=.10000D-02 MixMth= 2
 Mixed Optimization -- En-DIIS/RFO-DIIS
 Update second derivatives using D2CorX and points    1    2    3
 DE= -4.88D-05 DEPred=-5.09D-05 R= 9.59D-01
 TightC=F SS=  1.41D+00  RLast= 2.08D-02 DXNew= 5.0454D-01 6.2506D-02
 Trust test= 9.59D-01 RLast= 2.08D-02 DXMaxT set to 3.00D-01
 The second derivative matrix:
                          R1        R2        A1
           R1           0.48851
           R2          -0.00755   0.48851
           A1           0.01426   0.01426   0.14625
 ITU=  1  1  0
 Use linear search instead of GDIIS.
     Eigenvalues ---    0.14504   0.48217   0.49606
 RFO step:  Lambda=-2.85217657D-07 EMin= 1.45040317D-01
 Quartic linear search produced a step of  0.02757.
 Iteration  1 RMS(Cart)=  0.00089374 RMS(Int)=  0.00000041
 Iteration  2 RMS(Cart)=  0.00000032 RMS(Int)=  0.00000000
 ITry= 1 IFail=0 DXMaxC= 9.65D-04 DCOld= 1.00D+10 DXMaxT= 3.00D-01 DXLimC= 3.00D+00 Rises=F
 ClnCor:  largest displacement from symmetrization is 2.26D-16 for atom     2.
 Variable       Old X    -DE/DX   Delta X   Delta X   Delta X     New X
                                 (Linear)    (Quad)   (Total)
    R1        1.81751   0.00010  -0.00020   0.00036   0.00016   1.81767
    R2        1.81751   0.00010  -0.00020   0.00036   0.00016   1.81767
    A1        1.83274   0.00022   0.00050   0.00098   0.00148   1.83422
         Item               Value     Threshold  Converged?
 Maximum Force            0.000221     0.000450     YES
 RMS     Force            0.000150     0.000300     YES
 Maximum Displacement     0.000965     0.001800     YES
 RMS     Displacement     0.000894     0.001200     YES
 Predicted change in Energy=-1.783952D-07
 Optimization completed.
    -- Stationary point found.
                           ----------------------------
                           !   Optimized Parameters   !
                           ! (Angstroms and Degrees)  !
 --------------------------                            --------------------------
 ! Name  Definition              Value          Derivative Info.                !
 --------------------------------------------------------------------------------
 ! R1    R(1,2)                  0.9618         -DE/DX =    0.0001              !
 ! R2    R(1,3)                  0.9618         -DE/DX =    0.0001              !
 ! A1    A(2,1,3)              105.0084         -DE/DX =    0.0002              !
 --------------------------------------------------------------------------------
 Lowest energy point so far.  Saving SCF results.
 Largest change from initial coordinates is atom    2       0.041 Angstoms.
 GradGradGradGradGradGradGradGradGradGradGradGradGradGradGradGradGradGrad

 Leave Link  103 at Mon Apr 18 22:27:12 2022, MaxMem=   134217728 cpu:               0.0 elap:               0.0
 (Enter /software/commercial/MERCURY/GAUSSIAN/SSE4/g16/l202.exe)
                          Input orientation:                          
 ---------------------------------------------------------------------
 Center     Atomic      Atomic             Coordinates (Angstroms)
 Number     Number       Type             X           Y           Z
 ---------------------------------------------------------------------
      1          8           0       -0.021364   -0.032901   -0.000000
      2          1           0        0.937459    0.042547   -0.000000
      3          1           0       -0.342535    0.873676    0.000000
 ---------------------------------------------------------------------
                    Distance matrix (angstroms):
                    1          2          3
     1  O    0.000000
     2  H    0.961786   0.000000
     3  H    0.961786   1.526158   0.000000
 Stoichiometry    H2O
 Framework group  CS[SG(H2O)]
 Deg. of freedom     3
 Full point group                 CS      NOp   2
 RotChk:  IX=0 Diff= 4.44D-16
 Largest Abelian subgroup         CS      NOp   2
 Largest concise Abelian subgroup C1      NOp   1
                         Standard orientation:                         
 ---------------------------------------------------------------------
 Center     Atomic      Atomic             Coordinates (Angstroms)
 Number     Number       Type             X           Y           Z
 ---------------------------------------------------------------------
      1          8           0        0.000000    0.117089    0.000000
      2          1           0        0.763079   -0.468354   -0.000000
      3          1           0       -0.763079   -0.468354    0.000000
 ---------------------------------------------------------------------
 Rotational constants (GHZ):         823.7183293         430.5889132         282.7728073
 Leave Link  202 at Mon Apr 18 22:27:12 2022, MaxMem=   134217728 cpu:               0.0 elap:               0.0
 (Enter /software/commercial/MERCURY/GAUSSIAN/SSE4/g16/l601.exe)
 Copying SCF densities to generalized density rwf, IOpCl= 0 IROHF=0.

 **********************************************************************

            Population analysis using the SCF Density.

 **********************************************************************

 Orbital symmetries:
       Occupied  (A') (A') (A') (A') (A")
       Virtual   (A') (A') (A') (A") (A') (A') (A') (A') (A") (A")
                 (A') (A') (A') (A') (A') (A') (A') (A") (A") (A')
                 (A") (A') (A") (A') (A") (A') (A') (A') (A') (A")
                 (A') (A') (A") (A') (A") (A') (A") (A') (A') (A')
                 (A') (A") (A") (A') (A') (A") (A') (A') (A') (A")
                 (A') (A') (A") (A') (A') (A") (A") (A') (A') (A")
                 (A") (A") (A') (A') (A') (A') (A") (A') (A') (A')
                 (A") (A') (A') (A') (A") (A') (A") (A") (A') (A")
                 (A') (A") (A') (A') (A') (A') (A')
 The electronic state is 1-A'.
 Alpha  occ. eigenvalues --  -19.14048  -1.02117  -0.54057  -0.39912  -0.32415
 Alpha virt. eigenvalues --   -0.02507   0.01920   0.07568   0.09539   0.10266
 Alpha virt. eigenvalues --    0.11484   0.15087   0.17012   0.19142   0.21987
 Alpha virt. eigenvalues --    0.22415   0.30708   0.32999   0.34770   0.47150
 Alpha virt. eigenvalues --    0.51987   0.56968   0.59066   0.59085   0.68028
 Alpha virt. eigenvalues --    0.70911   0.72883   0.76140   0.76297   0.78580
 Alpha virt. eigenvalues --    0.80627   0.81677   0.87786   0.88583   0.91184
 Alpha virt. eigenvalues --    0.98307   1.03657   1.04477   1.10407   1.32599
 Alpha virt. eigenvalues --    1.35824   1.38806   1.57186   1.61417   1.74006
 Alpha virt. eigenvalues --    1.85959   1.99089   2.04693   2.06127   2.12733
 Alpha virt. eigenvalues --    2.16394   2.17406   2.21229   2.41911   2.43196
 Alpha virt. eigenvalues --    2.48308   2.57023   2.61333   3.31513   3.41242
 Alpha virt. eigenvalues --    3.64782   3.71480   3.87654   3.94347   3.99438
 Alpha virt. eigenvalues --    4.06789   4.08185   4.08325   4.15391   4.30107
 Alpha virt. eigenvalues --    4.44390   4.80238   4.81041   4.89490   4.92210
 Alpha virt. eigenvalues --    5.11218   5.28052   5.71780   6.05637   6.24400
 Alpha virt. eigenvalues --    6.42072   6.64973   6.73303   6.79130   6.82307
 Alpha virt. eigenvalues --    6.83635   6.84169   7.02975   7.39499   7.40919
 Alpha virt. eigenvalues --    8.26110  14.91012
          Condensed to atoms (all electrons):
               1          2          3
     1  O    7.844412   0.255091   0.255091
     2  H    0.255091   0.562776   0.004836
     3  H    0.255091   0.004836   0.562776
 Mulliken charges:
               1
     1  O   -0.354594
     2  H    0.177297
     3  H    0.177297
 Sum of Mulliken charges =  -0.00000
 Mulliken charges with hydrogens summed into heavy atoms:
               1
     1  O   -0.000000
 Electronic spatial extent (au):  <R**2>=             20.0793
 Charge=             -0.0000 electrons
 Dipole moment (field-independent basis, Debye):
    X=              0.0000    Y=             -1.8483    Z=              0.0000  Tot=              1.8483
 Quadrupole moment (field-independent basis, Debye-Ang):
   XX=             -4.4721   YY=             -6.5047   ZZ=             -7.8028
   XY=              0.0000   XZ=             -0.0000   YZ=             -0.0000
 Traceless Quadrupole moment (field-independent basis, Debye-Ang):
   XX=              1.7878   YY=             -0.2448   ZZ=             -1.5429
   XY=              0.0000   XZ=             -0.0000   YZ=             -0.0000
 Octapole moment (field-independent basis, Debye-Ang**2):
  XXX=              0.0000  YYY=             -0.9393  ZZZ=              0.0000  XYY=             -0.0000
  XXY=             -1.2883  XXZ=              0.0000  XZZ=              0.0000  YZZ=             -0.1963
  YYZ=              0.0000  XYZ=              0.0000
 Hexadecapole moment (field-independent basis, Debye-Ang**3):
 XXXX=             -6.7761 YYYY=             -8.1704 ZZZZ=             -7.8020 XXXY=             -0.0000
 XXXZ=              0.0000 YYYX=             -0.0000 YYYZ=             -0.0000 ZZZX=              0.0000
 ZZZY=             -0.0000 XXYY=             -2.1966 XXZZ=             -2.7631 YYZZ=             -2.7083
 XXYZ=             -0.0000 YYXZ=              0.0000 ZZXY=             -0.0000
 N-N= 9.149977471630D+00 E-N=-1.989773000900D+02  KE= 7.601289035753D+01
 Symmetry A'   KE= 7.149655987932D+01
 Symmetry A"   KE= 4.516330478211D+00
 No NMR shielding tensors so no spin-rotation constants.
 Leave Link  601 at Mon Apr 18 22:27:12 2022, MaxMem=   134217728 cpu:               0.1 elap:               0.1
 (Enter /software/commercial/MERCURY/GAUSSIAN/SSE4/g16/l9999.exe)
 Unable to Open any file for archive entry.
 1\1\GINC-SKYSTD07\FOpt\RB3LYP\Aug-CC-pVTZ\H2O1\THOMASEGG\18-Apr-2022\0
 \\#p B3LYP/aug-cc-pVTZ OPT FREQ\\Water\\0,1\O,-0.021363572,-0.03290115
 4,0.\H,0.9374588616,0.0425473944,0.\H,-0.3425352896,0.8736757596,0.\\V
 ersion=ES64L-G16RevC.01\State=1-A'\HF=-76.4661981\RMSD=7.221e-09\RMSF=
 7.729e-05\Dipole=0.3960177,0.6098942,0.\Quadrupole=0.8809789,0.2661528
 ,-1.1471317,-0.6902373,0.,0.\PG=CS [SG(H2O1)]\\@
 The archive entry for this job was punched.


 IN THE FIGHT BETWEEN YOU AND THE WORLD, BACK THE WORLD

                                        -- FRANZ KAFKA
 Leave Link 9999 at Mon Apr 18 22:27:12 2022, MaxMem=   134217728 cpu:               0.0 elap:               0.0
 Job cpu time:       0 days  0 hours  0 minutes 23.2 seconds.
 Elapsed time:       0 days  0 hours  0 minutes 23.2 seconds.
 File lengths (MBytes):  RWF=     22 Int=      0 D2E=      0 Chk=      2 Scr=      2
 Normal termination of Gaussian 16 at Mon Apr 18 22:27:12 2022.
 (Enter /software/commercial/MERCURY/GAUSSIAN/SSE4/g16/l1.exe)
 Link1:  Proceeding to internal job step number  2.
 ----------------------------------------------------------------------
 #P Geom=AllCheck Guess=TCheck SCRF=Check GenChk RB3LYP/Aug-CC-pVTZ Fre
 q
 ----------------------------------------------------------------------
 1/10=4,29=7,30=1,38=1,40=1/1,3;
 2/12=2,40=1/2;
 3/5=16,6=1,7=10,11=2,14=-4,25=1,30=1,70=2,71=2,74=-5,116=1,140=1/1,2,3;
 4/5=101/1;
 5/5=2,38=6,98=1/2;
 8/6=4,10=90,11=11/1;
 11/6=1,8=1,9=11,15=111,16=1/1,2,10;
 10/6=1/2;
 6/7=2,8=2,9=2,10=2,28=1/1;
 7/8=1,10=1,25=1/1,2,3,16;
 1/10=4,30=1/3;
 99//99;
 Leave Link    1 at Mon Apr 18 22:27:12 2022, MaxMem=   134217728 cpu:               0.0 elap:               0.0
 (Enter /software/commercial/MERCURY/GAUSSIAN/SSE4/g16/l101.exe)
 Structure from the checkpoint file:  "/home/thomasegg/AlcoholMixtureSpec/Gau-760610.chk"
 -----
 Water
 -----
 Charge =  0 Multiplicity = 1
 Redundant internal coordinates found in file.  (old form).
 O,0,-0.021363572,-0.032901154,0.
 H,0,0.9374588616,0.0425473944,0.
 H,0,-0.3425352896,0.8736757596,0.
 Recover connectivity data from disk.
 ITRead=  0  0  0
 MicOpt= -1 -1 -1
 NAtoms=      3 NQM=        3 NQMF=       0 NMMI=      0 NMMIF=      0
                NMic=       0 NMicF=      0.
                    Isotopes and Nuclear Properties:
 (Nuclear quadrupole moments (NQMom) in fm**2, nuclear magnetic moments (NMagM)
  in nuclear magnetons)

  Atom         1           2           3
 IAtWgt=          16           1           1
 AtmWgt=  15.9949146   1.0078250   1.0078250
 NucSpn=           0           1           1
 AtZEff=   5.6000000   1.0000000   1.0000000
 NQMom=    0.0000000   0.0000000   0.0000000
 NMagM=    0.0000000   2.7928460   2.7928460
 AtZNuc=   8.0000000   1.0000000   1.0000000
 Leave Link  101 at Mon Apr 18 22:27:12 2022, MaxMem=   134217728 cpu:               0.1 elap:               0.1
 (Enter /software/commercial/MERCURY/GAUSSIAN/SSE4/g16/l103.exe)

 GradGradGradGradGradGradGradGradGradGradGradGradGradGradGradGradGradGrad
 Berny optimization.
 Initialization pass.
                           ----------------------------
                           !    Initial Parameters    !
                           ! (Angstroms and Degrees)  !
 --------------------------                            --------------------------
 ! Name  Definition              Value          Derivative Info.                !
 --------------------------------------------------------------------------------
 ! R1    R(1,2)                  0.9618         calculate D2E/DX2 analytically  !
 ! R2    R(1,3)                  0.9618         calculate D2E/DX2 analytically  !
 ! A1    A(2,1,3)              105.0084         calculate D2E/DX2 analytically  !
 --------------------------------------------------------------------------------
 Trust Radius=3.00D-01 FncErr=1.00D-07 GrdErr=1.00D-07 EigMax=2.50D+02 EigMin=1.00D-04
 Number of steps in this run=      2 maximum allowed number of steps=      2.
 GradGradGradGradGradGradGradGradGradGradGradGradGradGradGradGradGradGrad

 Leave Link  103 at Mon Apr 18 22:27:13 2022, MaxMem=   134217728 cpu:               0.0 elap:               0.0
 (Enter /software/commercial/MERCURY/GAUSSIAN/SSE4/g16/l202.exe)
                          Input orientation:                          
 ---------------------------------------------------------------------
 Center     Atomic      Atomic             Coordinates (Angstroms)
 Number     Number       Type             X           Y           Z
 ---------------------------------------------------------------------
      1          8           0       -0.021364   -0.032901   -0.000000
      2          1           0        0.937459    0.042547   -0.000000
      3          1           0       -0.342535    0.873676    0.000000
 ---------------------------------------------------------------------
                    Distance matrix (angstroms):
                    1          2          3
     1  O    0.000000
     2  H    0.961786   0.000000
     3  H    0.961786   1.526158   0.000000
 Stoichiometry    H2O
 Framework group  CS[SG(H2O)]
 Deg. of freedom     3
 Full point group                 CS      NOp   2
 RotChk:  IX=0 Diff= 3.51D-16
 Largest Abelian subgroup         CS      NOp   2
 Largest concise Abelian subgroup C1      NOp   1
                         Standard orientation:                         
 ---------------------------------------------------------------------
 Center     Atomic      Atomic             Coordinates (Angstroms)
 Number     Number       Type             X           Y           Z
 ---------------------------------------------------------------------
      1          8           0       -0.000000    0.117089    0.000000
      2          1           0        0.763079   -0.468354   -0.000000
      3          1           0       -0.763079   -0.468354    0.000000
 ---------------------------------------------------------------------
 Rotational constants (GHZ):         823.7183293         430.5889132         282.7728073
 Leave Link  202 at Mon Apr 18 22:27:13 2022, MaxMem=   134217728 cpu:               0.0 elap:               0.0
 (Enter /software/commercial/MERCURY/GAUSSIAN/SSE4/g16/l301.exe)
 Standard basis: Aug-CC-pVTZ (5D, 7F)
 Ernie: Thresh=  0.10000D-02 Tol=  0.10000D-05 Strict=F.
 Ernie:  3 primitive shells out of 52 were deleted.
 There are    73 symmetry adapted cartesian basis functions of A'  symmetry.
 There are    32 symmetry adapted cartesian basis functions of A"  symmetry.
 There are    62 symmetry adapted basis functions of A'  symmetry.
 There are    30 symmetry adapted basis functions of A"  symmetry.
    92 basis functions,   126 primitive gaussians,   105 cartesian basis functions
     5 alpha electrons        5 beta electrons
       nuclear repulsion energy         9.1499774716 Hartrees.
 IExCor=  402 DFT=T Ex+Corr=B3LYP ExCW=0 ScaHFX=  0.200000
 ScaDFX=  0.800000  0.720000  1.000000  0.810000 ScalE2=  1.000000  1.000000
 IRadAn=      5 IRanWt=     -1 IRanGd=            0 ICorTp=0 IEmpDi=  4
 NAtoms=    3 NActive=    3 NUniq=    3 SFac= 1.00D+00 NAtFMM=   60 NAOKFM=F Big=F
 Integral buffers will be    131072 words long.
 Raffenetti 2 integral format.
 Two-electron integral symmetry is turned on.
 Leave Link  301 at Mon Apr 18 22:27:13 2022, MaxMem=   134217728 cpu:               0.1 elap:               0.1
 (Enter /software/commercial/MERCURY/GAUSSIAN/SSE4/g16/l302.exe)
 NPDir=0 NMtPBC=     1 NCelOv=     1 NCel=       1 NClECP=     1 NCelD=      1
         NCelK=      1 NCelE2=     1 NClLst=     1 CellRange=     0.0.
 One-electron integrals computed using PRISM.
 One-electron integral symmetry used in STVInt
 NBasis=    92 RedAO= T EigKep=  3.88D-04  NBF=    62    30
 NBsUse=    92 1.00D-06 EigRej= -1.00D+00 NBFU=    62    30
 Precomputing XC quadrature grid using
 IXCGrd= 4 IRadAn=           5 IRanWt=          -1 IRanGd=           0 AccXCQ= 0.00D+00.
 Generated NRdTot=       0 NPtTot=           0 NUsed=           0 NTot=          32
 NSgBfM=   105   105   105   105   105 MxSgAt=     3 MxSgA2=     3.
 Leave Link  302 at Mon Apr 18 22:27:13 2022, MaxMem=   134217728 cpu:               0.1 elap:               0.1
 (Enter /software/commercial/MERCURY/GAUSSIAN/SSE4/g16/l303.exe)
 DipDrv:  MaxL=1.
 Leave Link  303 at Mon Apr 18 22:27:13 2022, MaxMem=   134217728 cpu:               0.0 elap:               0.0
 (Enter /software/commercial/MERCURY/GAUSSIAN/SSE4/g16/l401.exe)
 Initial guess from the checkpoint file:  "/home/thomasegg/AlcoholMixtureSpec/Gau-760610.chk"
 B after Tr=    -0.000000    0.000000    0.000000
         Rot=    1.000000   -0.000000    0.000000    0.000000 Ang=   0.00 deg.
 Guess basis will be translated and rotated to current coordinates.
 JPrj=2 DoOrth=T DoCkMO=T.
 Initial guess orbital symmetries:
       Occupied  (A') (A') (A') (A') (A")
       Virtual   (A') (A') (A') (A") (A') (A') (A') (A') (A") (A")
                 (A') (A') (A') (A') (A') (A') (A') (A") (A") (A')
                 (A") (A') (A") (A') (A") (A') (A') (A') (A') (A")
                 (A') (A') (A") (A') (A") (A') (A") (A') (A') (A')
                 (A') (A") (A") (A') (A') (A") (A') (A') (A') (A")
                 (A') (A') (A") (A') (A') (A") (A") (A') (A') (A")
                 (A") (A") (A') (A') (A') (A') (A") (A') (A') (A')
                 (A") (A') (A') (A') (A") (A') (A") (A") (A') (A")
                 (A') (A") (A') (A') (A') (A') (A')
 The electronic state of the initial guess is 1-A'.
 Leave Link  401 at Mon Apr 18 22:27:13 2022, MaxMem=   134217728 cpu:               0.1 elap:               0.1
 (Enter /software/commercial/MERCURY/GAUSSIAN/SSE4/g16/l502.exe)
 Keep R1 ints in memory in symmetry-blocked form, NReq=13818732.
 FoFCou: FMM=F IPFlag=           0 FMFlag=           0 FMFlg1=           0
         NFxFlg=           0 DoJE=F BraDBF=F KetDBF=F FulRan=T
         wScrn=  0.000000 ICntrl=       600 IOpCl=  0 I1Cent=           0 NGrid=           0
         NMat0=    1 NMatS0=   4278 NMatT0=    0 NMatD0=    1 NMtDS0=    0 NMtDT0=    0
 Petite list used in FoFCou.
 Closed shell SCF:
 Using DIIS extrapolation, IDIIS=  1040.
 NGot=   134217728 LenX=   129528692 LenY=   129517226
 Requested convergence on RMS density matrix=1.00D-08 within 128 cycles.
 Requested convergence on MAX density matrix=1.00D-06.
 Requested convergence on             energy=1.00D-06.
 No special actions if energy rises.

 Cycle   1  Pass 1  IDiag  1:
 E= -76.4661980923471    
 DIIS: error= 7.14D-09 at cycle   1 NSaved=   1.
 NSaved= 1 IEnMin= 1 EnMin= -76.4661980923471     IErMin= 1 ErrMin= 7.14D-09
 ErrMax= 7.14D-09  0.00D+00 EMaxC= 1.00D-01 BMatC= 1.77D-15 BMatP= 1.77D-15
 IDIUse=1 WtCom= 1.00D+00 WtEn= 0.00D+00
 Coeff-Com:  0.100D+01
 Coeff:      0.100D+01
 Gap=     0.299 Goal=   None    Shift=    0.000
 RMSDP=6.06D-10 MaxDP=8.04D-09              OVMax= 4.49D-08

 SCF Done:  E(RB3LYP) =  -76.4661980923     A.U. after    1 cycles
            NFock=  1  Conv=0.61D-09     -V/T= 2.0060
 KE= 7.601289031064D+01 PE=-1.989773000431D+02 EE= 3.734823416850D+01
 Leave Link  502 at Mon Apr 18 22:27:15 2022, MaxMem=   134217728 cpu:               1.8 elap:               1.8
 (Enter /software/commercial/MERCURY/GAUSSIAN/SSE4/g16/l801.exe)
 DoSCS=F DFT=T ScalE2(SS,OS)=  1.000000  1.000000
 Range of M.O.s used for correlation:     1    92
 NBasis=    92 NAE=     5 NBE=     5 NFC=     0 NFV=     0
 NROrb=     92 NOA=     5 NOB=     5 NVA=    87 NVB=    87

 **** Warning!!: The largest alpha MO coefficient is  0.15744828D+02

 Leave Link  801 at Mon Apr 18 22:27:15 2022, MaxMem=   134217728 cpu:               0.0 elap:               0.0
 (Enter /software/commercial/MERCURY/GAUSSIAN/SSE4/g16/l1101.exe)
 Using compressed storage, NAtomX=     3.
 Will process      4 centers per pass.
 Leave Link 1101 at Mon Apr 18 22:27:15 2022, MaxMem=   134217728 cpu:               0.1 elap:               0.1
 (Enter /software/commercial/MERCURY/GAUSSIAN/SSE4/g16/l1102.exe)
 Symmetrizing basis deriv contribution to polar:
 IMax=3 JMax=2 DiffMx= 0.00D+00
 Leave Link 1102 at Mon Apr 18 22:27:15 2022, MaxMem=   134217728 cpu:               0.1 elap:               0.0
 (Enter /software/commercial/MERCURY/GAUSSIAN/SSE4/g16/l1110.exe)
 Forming Gx(P) for the SCF density, NAtomX=     3.
 Integral derivatives from FoFJK, PRISM(SPDF).
 Do as many integral derivatives as possible in FoFJK.
 G2DrvN: MDV=     134217295.
 G2DrvN: will do     4 centers at a time, making    1 passes.
 Calling FoFCou, ICntrl=  3107 FMM=F I1Cent=   0 AccDes= 0.00D+00.
 FoFJK:  IHMeth= 1 ICntrl=    3107 DoSepK=F KAlg= 0 I1Cent=           0 FoldK=F
 IRaf=         0 NMat=       1 IRICut=       1 DoRegI=T DoRafI=F ISym2E= 1 IDoP0=0 IntGTp=1.
 FoFCou: FMM=F IPFlag=           0 FMFlag=      100000 FMFlg1=           0
         NFxFlg=           0 DoJE=F BraDBF=F KetDBF=F FulRan=T
         wScrn=  0.000000 ICntrl=      3107 IOpCl=  0 I1Cent=           0 NGrid=           0
         NMat0=    1 NMatS0=      1 NMatT0=    0 NMatD0=    1 NMtDS0=    0 NMtDT0=    0
 Petite list used in FoFCou.
 End of G2Drv F.D. properties file   721 does not exist.
 End of G2Drv F.D. properties file   722 does not exist.
 End of G2Drv F.D. properties file   788 does not exist.
 Leave Link 1110 at Mon Apr 18 22:27:22 2022, MaxMem=   134217728 cpu:               6.6 elap:               6.6
 (Enter /software/commercial/MERCURY/GAUSSIAN/SSE4/g16/l1002.exe)
 Minotr:  Closed shell wavefunction.
          IDoAtm=111
          Direct CPHF calculation.
          Differentiating once with respect to electric field.
                with respect to dipole field.
          Differentiating once with respect to nuclear coordinates.
[...]
               1
     1  O    0.000000
 Electronic spatial extent (au):  <R**2>=             20.0793
 Charge=              0.0000 electrons
 Dipole moment (field-independent basis, Debye):
    X=              0.0000    Y=             -1.8483    Z=              0.0000  Tot=              1.8483
 Quadrupole moment (field-independent basis, Debye-Ang):
   XX=             -4.4721   YY=             -6.5047   ZZ=             -7.8028
   XY=              0.0000   XZ=             -0.0000   YZ=             -0.0000
 Traceless Quadrupole moment (field-independent basis, Debye-Ang):
   XX=              1.7878   YY=             -0.2448   ZZ=             -1.5429
   XY=              0.0000   XZ=             -0.0000   YZ=             -0.0000
 Octapole moment (field-independent basis, Debye-Ang**2):
  XXX=              0.0000  YYY=             -0.9393  ZZZ=              0.0000  XYY=             -0.0000
  XXY=             -1.2883  XXZ=              0.0000  XZZ=              0.0000  YZZ=             -0.1963
  YYZ=              0.0000  XYZ=              0.0000
 Hexadecapole moment (field-independent basis, Debye-Ang**3):
 XXXX=             -6.7761 YYYY=             -8.1704 ZZZZ=             -7.8020 XXXY=             -0.0000
 XXXZ=              0.0000 YYYX=             -0.0000 YYYZ=             -0.0000 ZZZX=              0.0000
 ZZZY=             -0.0000 XXYY=             -2.1966 XXZZ=             -2.7631 YYZZ=             -2.7083
 XXYZ=             -0.0000 YYXZ=              0.0000 ZZXY=             -0.0000
 N-N= 9.149977471630D+00 E-N=-1.989773000028D+02  KE= 7.601289031064D+01
 Symmetry A'   KE= 7.149655992435D+01
 Symmetry A"   KE= 4.516330386295D+00
  Exact polarizability:      10.265       0.000       9.743      -0.000      -0.000       9.410
 Approx polarizability:      12.889       0.000      12.051      -0.000       0.000      10.256
 No NMR shielding tensors so no spin-rotation constants.
 Leave Link  601 at Mon Apr 18 22:27:36 2022, MaxMem=   134217728 cpu:               0.1 elap:               0.1
 (Enter /software/commercial/MERCURY/GAUSSIAN/SSE4/g16/l701.exe)
 ... and contract with generalized density number  0.
 Compute integral second derivatives.
 Leave Link  701 at Mon Apr 18 22:27:36 2022, MaxMem=   134217728 cpu:               0.2 elap:               0.2
 (Enter /software/commercial/MERCURY/GAUSSIAN/SSE4/g16/l702.exe)
 L702 exits ... SP integral derivatives will be done elsewhere.
 Leave Link  702 at Mon Apr 18 22:27:36 2022, MaxMem=   134217728 cpu:               0.0 elap:               0.0
 (Enter /software/commercial/MERCURY/GAUSSIAN/SSE4/g16/l703.exe)
 Integral derivatives from FoFJK, PRISM(SPDF).
 Compute integral second derivatives, UseDBF=F ICtDFT=           0.
 Calling FoFJK, ICntrl=    100127 FMM=F ISym2X=1 I1Cent= 0 IOpClX= 0 NMat=1 NMatS=1 NMatT=0.
 FoFJK:  IHMeth= 1 ICntrl=  100127 DoSepK=F KAlg= 0 I1Cent=           0 FoldK=F
 IRaf=         0 NMat=       1 IRICut=       1 DoRegI=T DoRafI=F ISym2E= 1 IDoP0=0 IntGTp=1.
 FoFCou: FMM=F IPFlag=           0 FMFlag=      100000 FMFlg1=         800
         NFxFlg=           0 DoJE=F BraDBF=F KetDBF=F FulRan=T
         wScrn=  0.000000 ICntrl=    100127 IOpCl=  0 I1Cent=           0 NGrid=           0
         NMat0=    1 NMatS0=      1 NMatT0=    0 NMatD0=    1 NMtDS0=    0 NMtDT0=    0
 Petite list used in FoFCou.
 Leave Link  703 at Mon Apr 18 22:27:49 2022, MaxMem=   134217728 cpu:              12.5 elap:              12.6
 (Enter /software/commercial/MERCURY/GAUSSIAN/SSE4/g16/l716.exe)
 Dipole        = 2.91035407D-09-7.27186945D-01 3.11882671D-34
 Polarizability= 1.02653431D+01 8.54807947D-08 9.74319848D+00
                -1.59264238D-31-1.92689151D-33 9.40957712D+00
 Full mass-weighted force constant matrix:
 Low frequencies ---  -49.2055  -34.6463    0.0007    0.0015    0.0016   37.1026
 Low frequencies --- 1628.0362 3797.6840 3899.7151
 Diagonal vibrational polarizability:
        0.1110768       0.7767789       0.0000000
 Harmonic frequencies (cm**-1), IR intensities (KM/Mole), Raman scattering
 activities (A**4/AMU), depolarization ratios for plane and unpolarized
 incident light, reduced masses (AMU), force constants (mDyne/A),
 and normal coordinates:
                      1                      2                      3
                     A'                     A'                     A'
 Frequencies --   1628.0362              3797.6840              3899.7151
 Red. masses --      1.0834                 1.0445                 1.0824
 Frc consts  --      1.6918                 8.8758                 9.6981
 IR Inten    --     75.6511                 4.6487                62.7705
  Atom  AN      X      Y      Z        X      Y      Z        X      Y      Z
     1   8    -0.00  -0.07  -0.00    -0.00  -0.05  -0.00    -0.07   0.00   0.00
     2   1     0.42   0.56  -0.00    -0.59   0.39   0.00     0.56  -0.43  -0.00
     3   1    -0.42   0.56   0.00     0.59   0.39  -0.00     0.56   0.43  -0.00

 -------------------
 - Thermochemistry -
 -------------------
 Temperature   298.150 Kelvin.  Pressure   1.00000 Atm.
 Atom     1 has atomic number  8 and mass  15.99491
 Atom     2 has atomic number  1 and mass   1.00783
 Atom     3 has atomic number  1 and mass   1.00783
 Molecular mass:    18.01056 amu.
 Principal axes and moments of inertia in atomic units:
                           1         2         3
     Eigenvalues --     2.19097   4.19133   6.38230
           X            1.00000  -0.00000   0.00000
           Y            0.00000   1.00000   0.00000
           Z            0.00000  -0.00000   1.00000
 This molecule is an asymmetric top.
 Rotational symmetry number  1.
 Rotational temperatures (Kelvin)     39.53225    20.66501    13.57096
 Rotational constants (GHZ):         823.71833   430.58891   282.77281
 Zero-point vibrational energy      55778.5 (Joules/Mol)
                                   13.33138 (Kcal/Mol)
 Vibrational temperatures:   2342.38  5464.02  5610.82
          (Kelvin)
 
 Zero-point correction=                           0.021245 (Hartree/Particle)
 Thermal correction to Energy=                    0.024080
 Thermal correction to Enthalpy=                  0.025025
 Thermal correction to Gibbs Free Energy=         0.002949
 Sum of electronic and zero-point Energies=            -76.444953
 Sum of electronic and thermal Energies=               -76.442118
 Sum of electronic and thermal Enthalpies=             -76.441174
 Sum of electronic and thermal Free Energies=          -76.463250
 
                     E (Thermal)             CV                S
                      KCal/Mol        Cal/Mol-Kelvin    Cal/Mol-Kelvin
 Total                   15.111              6.009             46.463
 Electronic               0.000              0.000              0.000
 Translational            0.889              2.981             34.608
 Rotational               0.889              2.981             11.848
 Vibrational             13.333              0.048              0.007
                       Q            Log10(Q)             Ln(Q)
 Total Bot       0.440324D-01         -1.356228         -3.122830
 Total V=0       0.260460D+09          8.415741         19.377961
 Vib (Bot)       0.169122D-09         -9.771801        -22.500403
 Vib (V=0)       0.100039D+01          0.000168          0.000387
 Electronic      0.100000D+01          0.000000          0.000000
 Translational   0.300431D+07          6.477745         14.915559
 Rotational      0.866619D+02          1.937828          4.462015
 
                                                                Water
                                                             IR Spectrum
 
     3   3                                                                     1                                                     
     9   7                                                                     6                                                     
     0   9                                                                     2                                                     
     0   8                                                                     8                                                     
 
     X   X                                                                     X                                                     
     X                                                                         X                                                     
     X                                                                         X                                                     
     X                                                                         X                                                     
     X                                                                         X                                                     
     X                                                                         X                                                     
     X                                                                         X                                                     
     X                                                                         X                                                     
     X                                                                         X                                                     
     X                                                                         X                                                     
     X                                                                         X                                                     
     X                                                                         X                                                     
     X                                                                         X                                                     
     X                                                                         X                                                     
     X                                                                         X                                                     
     X                                                                         X                                                     
     X                                                                         X                                                     
                                                                               X                                                     
                                                                               X                                                     
                                                                               X                                                     
 
 ***** Axes restored to original set *****
 -------------------------------------------------------------------
 Center     Atomic                   Forces (Hartrees/Bohr)
 Number     Number              X              Y              Z
 -------------------------------------------------------------------
      1        8           0.000041230    0.000063520    0.000000000
      2        1           0.000105421   -0.000113593   -0.000000000
      3        1          -0.000146652    0.000050073    0.000000000
 -------------------------------------------------------------------
 Cartesian Forces:  Max     0.000146652 RMS     0.000077291
 Force constants in Cartesian coordinates: 
                1             2             3             4             5 
      1  0.608455D+00
      2 -0.105013D+00  0.514915D+00
      3  0.000000D+00  0.000000D+00  0.932544D-04
      4 -0.513983D+00 -0.110025D-01  0.000000D+00  0.531940D+00
      5 -0.708241D-01 -0.477018D-01  0.000000D+00  0.213490D-01  0.482323D-01
      6  0.000000D+00  0.000000D+00 -0.466229D-04  0.000000D+00  0.000000D+00
      7 -0.944715D-01  0.116015D+00  0.000000D+00 -0.179573D-01  0.494751D-01
      8  0.175837D+00 -0.467213D+00  0.000000D+00 -0.103465D-01 -0.530488D-03
      9  0.000000D+00  0.000000D+00 -0.466315D-04  0.000000D+00  0.000000D+00
                6             7             8             9 
      6 -0.228621D-04
      7  0.000000D+00  0.112429D+00
      8  0.000000D+00 -0.165490D+00  0.467744D+00
      9  0.694850D-04  0.000000D+00  0.000000D+00 -0.228535D-04
 FormGI is forming the generalized inverse of G from B-inverse, IUseBI=4.
 Force constants in internal coordinates: 
                1             2             3 
      1  0.532304D+00
      2 -0.508090D-02  0.532304D+00
      3  0.303064D-01  0.303064D-01  0.158290D+00
 Leave Link  716 at Mon Apr 18 22:27:49 2022, MaxMem=   134217728 cpu:               0.1 elap:               0.0
 (Enter /software/commercial/MERCURY/GAUSSIAN/SSE4/g16/l103.exe)

 GradGradGradGradGradGradGradGradGradGradGradGradGradGradGradGradGradGrad
 Berny optimization.
 Red2BG is reusing G-inverse.
 Internal  Forces:  Max     0.000220850 RMS     0.000149750
 Search for a local minimum.
 Step number   1 out of a maximum of    2
 All quantities printed in internal units (Hartrees-Bohrs-Radians)
 Second derivative matrix not updated -- analytic derivatives used.
 The second derivative matrix:
                          R1        R2        A1
           R1           0.53230
           R2          -0.00508   0.53230
           A1           0.03031   0.03031   0.15829
 ITU=  0
     Eigenvalues ---    0.15338   0.53214   0.53739
 Angle between quadratic step and forces=  25.40 degrees.
 Linear search not attempted -- first point.
 Iteration  1 RMS(Cart)=  0.00080471 RMS(Int)=  0.00000034
 Iteration  2 RMS(Cart)=  0.00000028 RMS(Int)=  0.00000000
 ITry= 1 IFail=0 DXMaxC= 8.64D-04 DCOld= 1.00D+10 DXMaxT= 3.00D-01 DXLimC= 3.00D+00 Rises=F
 ClnCor:  largest displacement from symmetrization is 1.37D-15 for atom     3.
 Variable       Old X    -DE/DX   Delta X   Delta X   Delta X     New X
                                 (Linear)    (Quad)   (Total)
    R1        1.81751   0.00010   0.00000   0.00010   0.00010   1.81762
    R2        1.81751   0.00010   0.00000   0.00010   0.00010   1.81762
    A1        1.83274   0.00022   0.00000   0.00136   0.00136   1.83410
         Item               Value     Threshold  Converged?
 Maximum Force            0.000221     0.000450     YES
 RMS     Force            0.000150     0.000300     YES
 Maximum Displacement     0.000864     0.001800     YES
 RMS     Displacement     0.000805     0.001200     YES
 Predicted change in Energy=-1.597007D-07
 Optimization completed.
    -- Stationary point found.
                           ----------------------------
                           !   Optimized Parameters   !
                           ! (Angstroms and Degrees)  !
 --------------------------                            --------------------------
 ! Name  Definition              Value          Derivative Info.                !
 --------------------------------------------------------------------------------
 ! R1    R(1,2)                  0.9618         -DE/DX =    0.0001              !
 ! R2    R(1,3)                  0.9618         -DE/DX =    0.0001              !
 ! A1    A(2,1,3)              105.0084         -DE/DX =    0.0002              !
 --------------------------------------------------------------------------------
 GradGradGradGradGradGradGradGradGradGradGradGradGradGradGradGradGradGrad

 Leave Link  103 at Mon Apr 18 22:27:49 2022, MaxMem=   134217728 cpu:               0.0 elap:               0.0
 (Enter /software/commercial/MERCURY/GAUSSIAN/SSE4/g16/l9999.exe)

 ----------------------------------------------------------------------

 Electric dipole moment (input orientation):
 (Debye = 10**-18 statcoulomb cm , SI units = C m)
                  (au)            (Debye)         (10**-30 SI)
   Tot        0.727187D+00      0.184832D+01      0.616535D+01
   x          0.396018D+00      0.100658D+01      0.335758D+01
   y          0.609894D+00      0.155020D+01      0.517090D+01
   z          0.000000D+00      0.000000D+00      0.000000D+00

 Dipole polarizability, Alpha (input orientation).
 (esu units = cm**3 , SI units = C**2 m**2 J**-1)
 Alpha(0;0):
               (au)            (10**-24 esu)      (10**-40 SI)
   iso        0.980604D+01      0.145311D+01      0.161680D+01
   aniso      0.747086D+00      0.110707D+00      0.123178D+00
   xx         0.101105D+02      0.149822D+01      0.166699D+01
   yx        -0.238489D+00     -0.353404D-01     -0.393215D-01
   yy         0.989805D+01      0.146674D+01      0.163197D+01
   zx         0.000000D+00      0.000000D+00      0.000000D+00
   zy         0.000000D+00      0.000000D+00      0.000000D+00
   zz         0.940958D+01      0.139436D+01      0.155143D+01

 ----------------------------------------------------------------------

 Dipole orientation:
     8         -0.00000017          0.00000011         -0.07413143
     1          1.20941903         -0.78530236          1.03219484
     1         -1.20941938          0.78530259          1.03219488

 Electric dipole moment (dipole orientation):
 (Debye = 10**-18 statcoulomb cm , SI units = C m)
                  (au)            (Debye)         (10**-30 SI)
   Tot        0.727187D+00      0.184832D+01      0.616535D+01
   x          0.000000D+00      0.000000D+00      0.000000D+00
   y          0.000000D+00      0.000000D+00      0.000000D+00
   z          0.727187D+00      0.184832D+01      0.616535D+01

 Dipole polarizability, Alpha (dipole orientation).
 (esu units = cm**3 , SI units = C**2 m**2 J**-1)
 Alpha(0;0):
               (au)            (10**-24 esu)      (10**-40 SI)
   iso        0.980604D+01      0.145311D+01      0.161680D+01
   aniso      0.747086D+00      0.110707D+00      0.123178D+00
   xx         0.100115D+02      0.148356D+01      0.165068D+01
   yx        -0.390870D+00     -0.579209D-01     -0.644457D-01
   yy         0.966338D+01      0.143196D+01      0.159328D+01
   zx         0.000000D+00      0.000000D+00      0.000000D+00
   zy         0.000000D+00      0.000000D+00      0.000000D+00
   zz         0.974320D+01      0.144379D+01      0.160644D+01

 ----------------------------------------------------------------------
 Unable to Open any file for archive entry.
 1\1\GINC-SKYSTD07\Freq\RB3LYP\Aug-CC-pVTZ\H2O1\THOMASEGG\18-Apr-2022\0
 \\#P Geom=AllCheck Guess=TCheck SCRF=Check GenChk RB3LYP/Aug-CC-pVTZ F
 req\\Water\\0,1\O,-0.021363572,-0.032901154,0.\H,0.9374588616,0.042547
 3944,0.\H,-0.3425352896,0.8736757596,0.\\Version=ES64L-G16RevC.01\Stat
 e=1-A'\HF=-76.4661981\RMSD=6.059e-10\RMSF=7.729e-05\ZeroPoint=0.021244
 9\Thermal=0.0240803\ETot=-76.4421178\HTot=-76.4411736\GTot=-76.4632496
 \Dipole=0.3960177,0.6098941,0.\DipoleDeriv=-0.4582459,0.0654801,0.,0.0
 654801,-0.3999198,0.,0.,0.,-0.6573023,0.1676747,-0.0673278,0.,-0.05288
 71,0.2614082,0.,0.,0.,0.3286511,0.2905712,0.0018477,0.,-0.012593,0.138
 5116,0.,0.,0.,0.3286511\Polar=10.1104871,-0.2384887,9.8980545,0.,0.,9.
 4095771\Quadrupole=0.8809789,0.2661529,-1.1471318,-0.6902372,0.,0.\PG=
 CS [SG(H2O1)]\NImag=0\\0.60845466,-0.10501252,0.51491512,0.,0.,0.00009
 325,-0.51398315,-0.01100252,0.,0.53194046,-0.07082410,-0.04770176,0.,0
 .02134902,0.04823225,0.,0.,-0.00004662,0.,0.,-0.00002286,-0.09447151,0
 .11601504,0.,-0.01795730,0.04947508,0.,0.11242881,0.17583661,-0.467213
 36,0.,-0.01034650,-0.00053049,0.,-0.16549012,0.46774385,0.,0.,-0.00004
 663,0.,0.,0.00006949,0.,0.,-0.00002285\\-0.00004123,-0.00006352,0.,-0.
 00010542,0.00011359,0.,0.00014665,-0.00005007,0.\\\@
 The archive entry for this job was punched.


 QUANTUM MECHANICS IS BOHRING -- M.S. GORDON
 Job cpu time:       0 days  0 hours  0 minutes 36.1 seconds.
 Elapsed time:       0 days  0 hours  0 minutes 36.1 seconds.
 File lengths (MBytes):  RWF=     22 Int=      0 D2E=      0 Chk=      2 Scr=      2
 Normal termination of Gaussian 16 at Mon Apr 18 22:27:49 2022.
